ESCALE ; pCOHP file generated by LOBSTER. Energy is shifted such that the Fermi level lies at 0 eV.
         3          2        802  -1.24996e+01   2.51910e+00  -2.48715e+00 
Average
No.1:O97->Au100(1.9814937357371694)
No.2:O97->Au103(1.923513364845296)
-10.01250   0.00000  -0.97362   0.00000  -0.83752   0.00000  -1.10972   0.00000  -0.95242   0.00000  -0.82253   0.00000  -1.08231
 -9.99375   0.00000  -0.97362   0.00000  -0.83752   0.00000  -1.10972   0.00000  -0.95242   0.00000  -0.82253   0.00000  -1.08231
 -9.97500   0.00000  -0.97362   0.00000  -0.83752   0.00000  -1.10972   0.00000  -0.95242   0.00000  -0.82253   0.00000  -1.08231
 -9.95625   0.00000  -0.97362   0.00000  -0.83752   0.00000  -1.10972   0.00000  -0.95242   0.00000  -0.82253   0.00000  -1.08231
 -9.93750   0.00000  -0.97362   0.00000  -0.83752   0.00000  -1.10972   0.00000  -0.95242   0.00000  -0.82253   0.00000  -1.08231
 -9.91875   0.00000  -0.97362   0.00000  -0.83752   0.00000  -1.10972   0.00000  -0.95242   0.00000  -0.82253   0.00000  -1.08231
 -9.90000   0.00000  -0.97362   0.00000  -0.83752   0.00000  -1.10972   0.00000  -0.95242   0.00000  -0.82253   0.00000  -1.08231
 -9.88125   0.00000  -0.97362   0.00000  -0.83752   0.00000  -1.10972   0.00000  -0.95242   0.00000  -0.82253   0.00000  -1.08231
 -9.86250   0.00000  -0.97362   0.00000  -0.83752   0.00000  -1.10972   0.00000  -0.95242   0.00000  -0.82253   0.00000  -1.08231
 -9.84375   0.00000  -0.97362   0.00000  -0.83752   0.00000  -1.10972   0.00000  -0.95242   0.00000  -0.82253   0.00000  -1.08231
 -9.82500   0.00000  -0.97362   0.00000  -0.83752   0.00000  -1.10972   0.00000  -0.95242   0.00000  -0.82253   0.00000  -1.08231
 -9.80625   0.00000  -0.97362   0.00000  -0.83752   0.00000  -1.10972   0.00000  -0.95242   0.00000  -0.82253   0.00000  -1.08231
 -9.78750   0.00000  -0.97362   0.00000  -0.83752   0.00000  -1.10972   0.00000  -0.95242   0.00000  -0.82253   0.00000  -1.08231
 -9.76875   0.00000  -0.97362   0.00000  -0.83752   0.00000  -1.10972   0.00000  -0.95242   0.00000  -0.82253   0.00000  -1.08231
 -9.75000   0.00000  -0.97362   0.00000  -0.83752   0.00000  -1.10972   0.00000  -0.95242   0.00000  -0.82253   0.00000  -1.08231
 -9.73125   0.00000  -0.97362   0.00000  -0.83752   0.00000  -1.10972   0.00000  -0.95242   0.00000  -0.82253   0.00000  -1.08231
 -9.71250   0.00000  -0.97362   0.00000  -0.83752   0.00000  -1.10972   0.00000  -0.95242   0.00000  -0.82253   0.00000  -1.08231
 -9.69375   0.00000  -0.97362   0.00000  -0.83752   0.00000  -1.10972   0.00000  -0.95242   0.00000  -0.82253   0.00000  -1.08231
 -9.67500   0.00000  -0.97362   0.00000  -0.83752   0.00000  -1.10972   0.00000  -0.95242   0.00000  -0.82253   0.00000  -1.08231
 -9.65625   0.00000  -0.97362   0.00000  -0.83752   0.00000  -1.10972   0.00000  -0.95242   0.00000  -0.82253   0.00000  -1.08231
 -9.63750   0.00000  -0.97362   0.00000  -0.83752   0.00000  -1.10972   0.00000  -0.95242   0.00000  -0.82253   0.00000  -1.08231
 -9.61875   0.00000  -0.97362   0.00000  -0.83752   0.00000  -1.10972   0.00000  -0.95242   0.00000  -0.82253   0.00000  -1.08231
 -9.60000   0.00000  -0.97362   0.00000  -0.83752   0.00000  -1.10972   0.00000  -0.95242   0.00000  -0.82253   0.00000  -1.08231
 -9.58125   0.00000  -0.97362   0.00000  -0.83752   0.00000  -1.10972   0.00000  -0.95242   0.00000  -0.82253   0.00000  -1.08231
 -9.56250   0.00000  -0.97362   0.00000  -0.83752   0.00000  -1.10972   0.00000  -0.95242   0.00000  -0.82253   0.00000  -1.08231
 -9.54375   0.00000  -0.97362   0.00000  -0.83752   0.00000  -1.10972   0.00000  -0.95242   0.00000  -0.82253   0.00000  -1.08231
 -9.52500   0.00000  -0.97362   0.00000  -0.83752   0.00000  -1.10972   0.00000  -0.95242   0.00000  -0.82253   0.00000  -1.08231
 -9.50625   0.00000  -0.97362   0.00000  -0.83752   0.00000  -1.10972   0.00000  -0.95242   0.00000  -0.82253   0.00000  -1.08231
 -9.48750   0.00000  -0.97362   0.00000  -0.83752   0.00000  -1.10972   0.00000  -0.95242   0.00000  -0.82253   0.00000  -1.08231
 -9.46875   0.00000  -0.97362   0.00000  -0.83752   0.00000  -1.10972   0.00000  -0.95242   0.00000  -0.82253   0.00000  -1.08231
 -9.45000   0.00000  -0.97362   0.00000  -0.83752   0.00000  -1.10972   0.00000  -0.95242   0.00000  -0.82253   0.00000  -1.08231
 -9.43125   0.00000  -0.97362   0.00000  -0.83752   0.00000  -1.10972   0.00000  -0.95242   0.00000  -0.82253   0.00000  -1.08231
 -9.41250   0.00000  -0.97362   0.00000  -0.83752   0.00000  -1.10972   0.00000  -0.95242   0.00000  -0.82253   0.00000  -1.08231
 -9.39375   0.00000  -0.97362   0.00000  -0.83752   0.00000  -1.10972   0.00000  -0.95242   0.00000  -0.82253   0.00000  -1.08231
 -9.37500   0.00000  -0.97362   0.00000  -0.83752   0.00000  -1.10972   0.00000  -0.95242   0.00000  -0.82253   0.00000  -1.08231
 -9.35625   0.00000  -0.97362   0.00000  -0.83752   0.00000  -1.10972   0.00000  -0.95242   0.00000  -0.82253   0.00000  -1.08231
 -9.33750   0.00000  -0.97362   0.00000  -0.83752   0.00000  -1.10972   0.00000  -0.95242   0.00000  -0.82253   0.00000  -1.08231
 -9.31875   0.00000  -0.97362   0.00000  -0.83752   0.00000  -1.10972   0.00000  -0.95242   0.00000  -0.82253   0.00000  -1.08231
 -9.30000   0.00000  -0.97362   0.00000  -0.83752   0.00000  -1.10972   0.00000  -0.95242   0.00000  -0.82253   0.00000  -1.08231
 -9.28125   0.00000  -0.97362   0.00000  -0.83752   0.00000  -1.10972   0.00000  -0.95242   0.00000  -0.82253   0.00000  -1.08231
 -9.26250   0.00000  -0.97362   0.00000  -0.83752   0.00000  -1.10972   0.00000  -0.95242   0.00000  -0.82253   0.00000  -1.08231
 -9.24375   0.00000  -0.97362   0.00000  -0.83752   0.00000  -1.10972   0.00000  -0.95242   0.00000  -0.82253   0.00000  -1.08231
 -9.22500   0.00000  -0.97362   0.00000  -0.83752   0.00000  -1.10972   0.00000  -0.95242   0.00000  -0.82253   0.00000  -1.08231
 -9.20625   0.00000  -0.97362   0.00000  -0.83752   0.00000  -1.10972   0.00000  -0.95242   0.00000  -0.82253   0.00000  -1.08231
 -9.18750   0.00000  -0.97362   0.00000  -0.83752   0.00000  -1.10972   0.00000  -0.95242   0.00000  -0.82253   0.00000  -1.08231
 -9.16875   0.00000  -0.97362   0.00000  -0.83752   0.00000  -1.10972   0.00000  -0.95242   0.00000  -0.82253   0.00000  -1.08231
 -9.15000   0.00000  -0.97362   0.00000  -0.83752   0.00000  -1.10972   0.00000  -0.95242   0.00000  -0.82253   0.00000  -1.08231
 -9.13125   0.00000  -0.97362   0.00000  -0.83752   0.00000  -1.10972   0.00000  -0.95242   0.00000  -0.82253   0.00000  -1.08231
 -9.11250   0.00000  -0.97362   0.00000  -0.83752   0.00000  -1.10972   0.00000  -0.95242   0.00000  -0.82253   0.00000  -1.08231
 -9.09375   0.00000  -0.97362   0.00000  -0.83752   0.00000  -1.10972   0.00000  -0.95242   0.00000  -0.82253   0.00000  -1.08231
 -9.07500   0.00000  -0.97362   0.00000  -0.83752   0.00000  -1.10972   0.00000  -0.95242   0.00000  -0.82253   0.00000  -1.08231
 -9.05625   0.00000  -0.97362   0.00000  -0.83752   0.00000  -1.10972   0.00000  -0.95242   0.00000  -0.82253   0.00000  -1.08231
 -9.03750   0.00000  -0.97362   0.00000  -0.83752   0.00000  -1.10972   0.00000  -0.95242   0.00000  -0.82253   0.00000  -1.08231
 -9.01875   0.00000  -0.97362   0.00000  -0.83752   0.00000  -1.10972   0.00000  -0.95242   0.00000  -0.82253   0.00000  -1.08231
 -9.00000   0.00000  -0.97362   0.00000  -0.83752   0.00000  -1.10972   0.00000  -0.95242   0.00000  -0.82253   0.00000  -1.08231
 -8.98125   0.00000  -0.97362   0.00000  -0.83752   0.00000  -1.10972   0.00000  -0.95242   0.00000  -0.82253   0.00000  -1.08231
 -8.96250   0.00000  -0.97362   0.00000  -0.83752   0.00000  -1.10972   0.00000  -0.95242   0.00000  -0.82253   0.00000  -1.08231
 -8.94375   0.00000  -0.97362   0.00000  -0.83752   0.00000  -1.10972   0.00000  -0.95242   0.00000  -0.82253   0.00000  -1.08231
 -8.92500   0.00000  -0.97362   0.00000  -0.83752   0.00000  -1.10972   0.00000  -0.95242   0.00000  -0.82253   0.00000  -1.08231
 -8.90625   0.00000  -0.97362   0.00000  -0.83752   0.00000  -1.10972   0.00000  -0.95242   0.00000  -0.82253   0.00000  -1.08231
 -8.88750   0.00000  -0.97362   0.00000  -0.83752   0.00000  -1.10972   0.00000  -0.95242   0.00000  -0.82253   0.00000  -1.08231
 -8.86875   0.00000  -0.97362   0.00000  -0.83752   0.00000  -1.10972   0.00000  -0.95242   0.00000  -0.82253   0.00000  -1.08231
 -8.85000   0.00000  -0.97362   0.00000  -0.83752   0.00000  -1.10972   0.00000  -0.95242   0.00000  -0.82253   0.00000  -1.08231
 -8.83125   0.00000  -0.97362   0.00000  -0.83752   0.00000  -1.10972   0.00000  -0.95242   0.00000  -0.82253   0.00000  -1.08231
 -8.81250   0.00000  -0.97362   0.00000  -0.83752   0.00000  -1.10972   0.00000  -0.95242   0.00000  -0.82253   0.00000  -1.08231
 -8.79375   0.00000  -0.97362   0.00000  -0.83752   0.00000  -1.10972   0.00000  -0.95242   0.00000  -0.82253   0.00000  -1.08231
 -8.77500   0.00000  -0.97362   0.00000  -0.83752   0.00000  -1.10972   0.00000  -0.95242   0.00000  -0.82253   0.00000  -1.08231
 -8.75625   0.00000  -0.97362   0.00000  -0.83752   0.00000  -1.10972   0.00000  -0.95242   0.00000  -0.82253   0.00000  -1.08231
 -8.73750   0.00000  -0.97362   0.00000  -0.83752   0.00000  -1.10972   0.00000  -0.95242   0.00000  -0.82253   0.00000  -1.08231
 -8.71875   0.00000  -0.97362   0.00000  -0.83752   0.00000  -1.10972   0.00000  -0.95242   0.00000  -0.82253   0.00000  -1.08231
 -8.70000   0.00000  -0.97362   0.00000  -0.83752   0.00000  -1.10972   0.00000  -0.95242   0.00000  -0.82253   0.00000  -1.08231
 -8.68125   0.00000  -0.97362   0.00000  -0.83752   0.00000  -1.10972   0.00000  -0.95242   0.00000  -0.82253   0.00000  -1.08231
 -8.66250   0.00000  -0.97362   0.00000  -0.83752   0.00000  -1.10972   0.00000  -0.95242   0.00000  -0.82253   0.00000  -1.08231
 -8.64375   0.00000  -0.97362   0.00000  -0.83752   0.00000  -1.10972   0.00000  -0.95242   0.00000  -0.82253   0.00000  -1.08231
 -8.62500   0.00000  -0.97362   0.00000  -0.83752   0.00000  -1.10972   0.00000  -0.95242   0.00000  -0.82253   0.00000  -1.08231
 -8.60625   0.00000  -0.97362   0.00000  -0.83752   0.00000  -1.10972   0.00000  -0.95242   0.00000  -0.82253   0.00000  -1.08231
 -8.58750   0.00000  -0.97362   0.00000  -0.83752   0.00000  -1.10972   0.00000  -0.95242   0.00000  -0.82253   0.00000  -1.08231
 -8.56875   0.00000  -0.97362   0.00000  -0.83752   0.00000  -1.10972   0.00000  -0.95242   0.00000  -0.82253   0.00000  -1.08231
 -8.55000   0.00000  -0.97362   0.00000  -0.83752   0.00000  -1.10972   0.00000  -0.95242   0.00000  -0.82253   0.00000  -1.08231
 -8.53125   0.00000  -0.97362   0.00000  -0.83752   0.00000  -1.10972   0.00000  -0.95242   0.00000  -0.82253   0.00000  -1.08231
 -8.51250   0.00000  -0.97362   0.00000  -0.83752   0.00000  -1.10972   0.00000  -0.95242   0.00000  -0.82253   0.00000  -1.08231
 -8.49375   0.00000  -0.97362   0.00000  -0.83752   0.00000  -1.10972   0.00000  -0.95242   0.00000  -0.82253   0.00000  -1.08231
 -8.47500   0.00000  -0.97362   0.00000  -0.83752   0.00000  -1.10972   0.00000  -0.95242   0.00000  -0.82253   0.00000  -1.08231
 -8.45625   0.00000  -0.97362   0.00000  -0.83752   0.00000  -1.10972   0.00000  -0.95242   0.00000  -0.82253   0.00000  -1.08231
 -8.43750   0.00000  -0.97362   0.00000  -0.83752   0.00000  -1.10972   0.00000  -0.95242   0.00000  -0.82253   0.00000  -1.08231
 -8.41875   0.00000  -0.97362   0.00000  -0.83752   0.00000  -1.10972   0.00000  -0.95242   0.00000  -0.82253   0.00000  -1.08231
 -8.40000   0.00000  -0.97362   0.00000  -0.83752   0.00000  -1.10972   0.00000  -0.95242   0.00000  -0.82253   0.00000  -1.08231
 -8.38125   0.00000  -0.97362   0.00000  -0.83752   0.00000  -1.10972   0.00000  -0.95242   0.00000  -0.82253   0.00000  -1.08231
 -8.36250   0.00000  -0.97362   0.00000  -0.83752   0.00000  -1.10972   0.00000  -0.95242   0.00000  -0.82253   0.00000  -1.08231
 -8.34375   0.00000  -0.97362   0.00000  -0.83752   0.00000  -1.10972   0.00000  -0.95242   0.00000  -0.82253   0.00000  -1.08231
 -8.32500   0.00000  -0.97362   0.00000  -0.83752   0.00000  -1.10972   0.00000  -0.95242   0.00000  -0.82253   0.00000  -1.08231
 -8.30625   0.00000  -0.97362   0.00000  -0.83752   0.00000  -1.10972   0.00000  -0.95242   0.00000  -0.82253   0.00000  -1.08231
 -8.28750   0.00000  -0.97362   0.00000  -0.83752   0.00000  -1.10972   0.00000  -0.95242   0.00000  -0.82253   0.00000  -1.08231
 -8.26875   0.00000  -0.97362   0.00000  -0.83752   0.00000  -1.10972   0.00000  -0.95242   0.00000  -0.82253   0.00000  -1.08231
 -8.25000   0.00000  -0.97362   0.00000  -0.83752   0.00000  -1.10972   0.00000  -0.95242   0.00000  -0.82253   0.00000  -1.08231
 -8.23125   0.00000  -0.97362   0.00000  -0.83752   0.00000  -1.10972   0.00000  -0.95242   0.00000  -0.82253   0.00000  -1.08231
 -8.21250   0.00000  -0.97362   0.00000  -0.83752   0.00000  -1.10972   0.00000  -0.95242   0.00000  -0.82253   0.00000  -1.08231
 -8.19375   0.00000  -0.97362   0.00000  -0.83752   0.00000  -1.10972   0.00000  -0.95242   0.00000  -0.82253   0.00000  -1.08231
 -8.17500   0.00000  -0.97362   0.00000  -0.83752   0.00000  -1.10972   0.00000  -0.95242   0.00000  -0.82253   0.00000  -1.08231
 -8.15625   0.00000  -0.97362   0.00000  -0.83752   0.00000  -1.10972   0.00000  -0.95242   0.00000  -0.82253   0.00000  -1.08231
 -8.13750   0.00000  -0.97362   0.00000  -0.83752   0.00000  -1.10972   0.00000  -0.95242   0.00000  -0.82253   0.00000  -1.08231
 -8.11875   0.00000  -0.97362   0.00000  -0.83752   0.00000  -1.10972   0.00000  -0.95242   0.00000  -0.82253   0.00000  -1.08231
 -8.10000   0.00000  -0.97362   0.00000  -0.83752   0.00000  -1.10972   0.00000  -0.95242   0.00000  -0.82253   0.00000  -1.08231
 -8.08125   0.00000  -0.97362   0.00000  -0.83752   0.00000  -1.10972   0.00000  -0.95242   0.00000  -0.82253   0.00000  -1.08231
 -8.06250   0.00000  -0.97362   0.00000  -0.83752   0.00000  -1.10972   0.00000  -0.95242   0.00000  -0.82253   0.00000  -1.08231
 -8.04375   0.00000  -0.97362   0.00000  -0.83752   0.00000  -1.10972   0.00000  -0.95242   0.00000  -0.82253   0.00000  -1.08231
 -8.02500   0.00000  -0.97362   0.00000  -0.83752   0.00000  -1.10972   0.00000  -0.95242   0.00000  -0.82253   0.00000  -1.08231
 -8.00625   0.00000  -0.97362   0.00000  -0.83752   0.00000  -1.10972   0.00000  -0.95242   0.00000  -0.82253   0.00000  -1.08231
 -7.98750   0.00000  -0.97362   0.00000  -0.83752   0.00000  -1.10972   0.00000  -0.95242   0.00000  -0.82253   0.00000  -1.08231
 -7.96875   0.00000  -0.97362   0.00000  -0.83752   0.00000  -1.10972   0.00000  -0.95242   0.00000  -0.82253   0.00000  -1.08231
 -7.95000   0.00000  -0.97362   0.00000  -0.83752   0.00000  -1.10972   0.00000  -0.95242   0.00000  -0.82253   0.00000  -1.08231
 -7.93125   0.00000  -0.97362   0.00000  -0.83752   0.00000  -1.10972   0.00000  -0.95242   0.00000  -0.82253   0.00000  -1.08231
 -7.91250   0.00000  -0.97362   0.00000  -0.83752   0.00000  -1.10972   0.00000  -0.95242   0.00000  -0.82253   0.00000  -1.08231
 -7.89375   0.00000  -0.97362   0.00000  -0.83752   0.00000  -1.10972   0.00000  -0.95242   0.00000  -0.82253   0.00000  -1.08231
 -7.87500   0.00000  -0.97362   0.00000  -0.83752   0.00000  -1.10972   0.00000  -0.95242   0.00000  -0.82253   0.00000  -1.08231
 -7.85625   0.00000  -0.97362   0.00000  -0.83752   0.00000  -1.10972   0.00000  -0.95242   0.00000  -0.82253   0.00000  -1.08231
 -7.83750   0.00000  -0.97362   0.00000  -0.83752   0.00000  -1.10972   0.00000  -0.95242   0.00000  -0.82253   0.00000  -1.08231
 -7.81875   0.00000  -0.97362   0.00000  -0.83752   0.00000  -1.10972   0.00000  -0.95242   0.00000  -0.82253   0.00000  -1.08231
 -7.80000   0.00000  -0.97362   0.00000  -0.83752   0.00000  -1.10972   0.00000  -0.95242   0.00000  -0.82253   0.00000  -1.08231
 -7.78125   0.00000  -0.97362   0.00000  -0.83752   0.00000  -1.10972   0.00000  -0.95242   0.00000  -0.82253   0.00000  -1.08231
 -7.76250   0.00000  -0.97362   0.00000  -0.83752   0.00000  -1.10972   0.00000  -0.95242   0.00000  -0.82253   0.00000  -1.08231
 -7.74375   0.00000  -0.97362   0.00000  -0.83752   0.00000  -1.10972   0.00000  -0.95242   0.00000  -0.82253   0.00000  -1.08231
 -7.72500   0.00000  -0.97362   0.00000  -0.83752   0.00000  -1.10972   0.00000  -0.95242   0.00000  -0.82253   0.00000  -1.08231
 -7.70625   0.00000  -0.97362   0.00000  -0.83752   0.00000  -1.10972   0.00000  -0.95242   0.00000  -0.82253   0.00000  -1.08231
 -7.68750   0.00000  -0.97362   0.00000  -0.83752   0.00000  -1.10972   0.00000  -0.95242   0.00000  -0.82253   0.00000  -1.08231
 -7.66875   0.00000  -0.97362   0.00000  -0.83752   0.00000  -1.10972   0.00000  -0.95242   0.00000  -0.82253   0.00000  -1.08231
 -7.65000   0.00000  -0.97362   0.00000  -0.83752   0.00000  -1.10972   0.00000  -0.95242   0.00000  -0.82253   0.00000  -1.08231
 -7.63125   0.00000  -0.97362   0.00000  -0.83752   0.00000  -1.10972   0.00000  -0.95242   0.00000  -0.82253   0.00000  -1.08231
 -7.61250   0.00000  -0.97362   0.00000  -0.83752   0.00000  -1.10972   0.00000  -0.95242   0.00000  -0.82253   0.00000  -1.08231
 -7.59375   0.00000  -0.97362   0.00000  -0.83752   0.00000  -1.10972   0.00000  -0.95242   0.00000  -0.82253   0.00000  -1.08231
 -7.57500   0.00000  -0.97362   0.00000  -0.83752   0.00000  -1.10972   0.00000  -0.95242   0.00000  -0.82253   0.00000  -1.08231
 -7.55625   0.00000  -0.97362   0.00000  -0.83752   0.00000  -1.10972   0.00000  -0.95242   0.00000  -0.82253   0.00000  -1.08231
 -7.53750   0.00000  -0.97362   0.00000  -0.83752   0.00000  -1.10972   0.00000  -0.95242   0.00000  -0.82253   0.00000  -1.08231
 -7.51875   0.00000  -0.97362   0.00000  -0.83752   0.00000  -1.10972   0.00000  -0.95242   0.00000  -0.82253   0.00000  -1.08231
 -7.50000   0.00000  -0.97362   0.00000  -0.83752   0.00000  -1.10972   0.00000  -0.95242   0.00000  -0.82253   0.00000  -1.08231
 -7.48125   0.00000  -0.97362   0.00000  -0.83752   0.00000  -1.10972   0.00000  -0.95242   0.00000  -0.82253   0.00000  -1.08231
 -7.46250   0.00000  -0.97362   0.00000  -0.83752   0.00000  -1.10972   0.00000  -0.95242   0.00000  -0.82253   0.00000  -1.08231
 -7.44375   0.00000  -0.97362   0.00000  -0.83752   0.00000  -1.10972   0.00000  -0.95242   0.00000  -0.82253   0.00000  -1.08231
 -7.42500   0.00000  -0.97362   0.00000  -0.83752   0.00000  -1.10972   0.00000  -0.95242   0.00000  -0.82253   0.00000  -1.08231
 -7.40625   0.00000  -0.97362   0.00000  -0.83752   0.00000  -1.10972   0.00000  -0.95242   0.00000  -0.82253   0.00000  -1.08231
 -7.38750   0.00000  -0.97362   0.00000  -0.83752   0.00000  -1.10972   0.00000  -0.95242   0.00000  -0.82253   0.00000  -1.08231
 -7.36875   0.00000  -0.97362   0.00000  -0.83752   0.00000  -1.10972   0.00000  -0.95242   0.00000  -0.82253   0.00000  -1.08231
 -7.35000   0.00000  -0.97362   0.00000  -0.83752   0.00000  -1.10972   0.00000  -0.95242   0.00000  -0.82253   0.00000  -1.08231
 -7.33125   0.00000  -0.97362   0.00000  -0.83752   0.00000  -1.10972   0.00000  -0.95242   0.00000  -0.82253   0.00000  -1.08231
 -7.31250   0.00000  -0.97362   0.00000  -0.83752   0.00000  -1.10972   0.00000  -0.95242   0.00000  -0.82253   0.00000  -1.08231
 -7.29375   0.00000  -0.97362   0.00000  -0.83752   0.00000  -1.10972   0.00000  -0.95242   0.00000  -0.82253   0.00000  -1.08231
 -7.27500   0.00000  -0.97362   0.00000  -0.83752   0.00000  -1.10972   0.00000  -0.95242   0.00000  -0.82253   0.00000  -1.08231
 -7.25625   0.00000  -0.97362   0.00000  -0.83752   0.00000  -1.10972   0.00000  -0.95242   0.00000  -0.82253   0.00000  -1.08231
 -7.23750   0.00000  -0.97362   0.00000  -0.83752   0.00000  -1.10972   0.00000  -0.95242   0.00000  -0.82253   0.00000  -1.08231
 -7.21875   0.00000  -0.97362   0.00000  -0.83752   0.00000  -1.10972   0.00000  -0.95242   0.00000  -0.82253   0.00000  -1.08231
 -7.20000   0.00000  -0.97362   0.00000  -0.83752   0.00000  -1.10972   0.00000  -0.95242   0.00000  -0.82253   0.00000  -1.08231
 -7.18125   0.00000  -0.97362   0.00000  -0.83752   0.00000  -1.10972   0.00000  -0.95242   0.00000  -0.82253   0.00000  -1.08231
 -7.16250   0.00000  -0.97362   0.00000  -0.83752   0.00000  -1.10972  -0.00000  -0.95242  -0.00000  -0.82253  -0.00000  -1.08231
 -7.14375   0.00000  -0.97362   0.00000  -0.83752   0.00000  -1.10972  -0.00000  -0.95242  -0.00000  -0.82253  -0.00000  -1.08231
 -7.12500   0.00000  -0.97362   0.00000  -0.83752   0.00000  -1.10972  -0.00000  -0.95242  -0.00000  -0.82253  -0.00000  -1.08231
 -7.10625   0.00000  -0.97362   0.00000  -0.83752   0.00000  -1.10972  -0.00000  -0.95242  -0.00000  -0.82253  -0.00000  -1.08231
 -7.08750   0.00000  -0.97362   0.00000  -0.83752   0.00000  -1.10972  -0.00000  -0.95242  -0.00000  -0.82253  -0.00000  -1.08231
 -7.06875  -0.00000  -0.97362  -0.00000  -0.83752  -0.00000  -1.10972  -0.00000  -0.95242  -0.00000  -0.82253  -0.00000  -1.08231
 -7.05000  -0.00000  -0.97362  -0.00000  -0.83752  -0.00000  -1.10972  -0.00000  -0.95242  -0.00000  -0.82253  -0.00000  -1.08231
 -7.03125  -0.00000  -0.97362  -0.00000  -0.83752  -0.00000  -1.10972  -0.00000  -0.95242  -0.00000  -0.82253  -0.00000  -1.08231
 -7.01250  -0.00000  -0.97362  -0.00000  -0.83752  -0.00000  -1.10972  -0.00000  -0.95242  -0.00000  -0.82253  -0.00000  -1.08231
 -6.99375  -0.00000  -0.97362  -0.00000  -0.83752  -0.00000  -1.10972  -0.00000  -0.95242  -0.00000  -0.82253  -0.00000  -1.08231
 -6.97500  -0.00000  -0.97362  -0.00000  -0.83752  -0.00000  -1.10972  -0.00000  -0.95242  -0.00000  -0.82253  -0.00000  -1.08231
 -6.95625  -0.00000  -0.97362  -0.00000  -0.83752  -0.00000  -1.10972  -0.00000  -0.95242  -0.00000  -0.82253  -0.00000  -1.08231
 -6.93750  -0.00000  -0.97362  -0.00000  -0.83752  -0.00000  -1.10972  -0.00000  -0.95242  -0.00000  -0.82253  -0.00000  -1.08231
 -6.91875  -0.00000  -0.97362  -0.00000  -0.83752  -0.00000  -1.10972  -0.00001  -0.95242  -0.00001  -0.82253  -0.00001  -1.08231
 -6.90000  -0.00000  -0.97362  -0.00000  -0.83752  -0.00000  -1.10972  -0.00005  -0.95242  -0.00005  -0.82253  -0.00005  -1.08231
 -6.88125  -0.00000  -0.97362  -0.00000  -0.83752  -0.00000  -1.10972  -0.00017  -0.95242  -0.00015  -0.82253  -0.00018  -1.08232
 -6.86250  -0.00000  -0.97362  -0.00000  -0.83752  -0.00000  -1.10972  -0.00053  -0.95243  -0.00048  -0.82254  -0.00058  -1.08233
 -6.84375  -0.00000  -0.97362  -0.00000  -0.83752  -0.00000  -1.10972  -0.00156  -0.95246  -0.00141  -0.82257  -0.00170  -1.08236
 -6.82500  -0.00001  -0.97362  -0.00001  -0.83752  -0.00001  -1.10972  -0.00427  -0.95254  -0.00388  -0.82264  -0.00466  -1.08245
 -6.80625  -0.00004  -0.97362  -0.00004  -0.83752  -0.00004  -1.10972  -0.01092  -0.95275  -0.00993  -0.82283  -0.01191  -1.08267
 -6.78750  -0.00014  -0.97362  -0.00013  -0.83752  -0.00015  -1.10972  -0.02605  -0.95324  -0.02369  -0.82327  -0.02842  -1.08320
 -6.76875  -0.00045  -0.97363  -0.00041  -0.83753  -0.00049  -1.10973  -0.05796  -0.95432  -0.05269  -0.82426  -0.06323  -1.08439
 -6.75000  -0.00134  -0.97365  -0.00123  -0.83755  -0.00145  -1.10976  -0.12022  -0.95658  -0.10930  -0.82631  -0.13115  -1.08685
 -6.73125  -0.00370  -0.97372  -0.00340  -0.83762  -0.00401  -1.10983  -0.23254  -0.96094  -0.21141  -0.83027  -0.25368  -1.09160
 -6.71250  -0.00956  -0.97390  -0.00877  -0.83778  -0.01035  -1.11003  -0.41942  -0.96880  -0.38130  -0.83742  -0.45754  -1.10018
 -6.69375  -0.02299  -0.97433  -0.02109  -0.83818  -0.02489  -1.11049  -0.70540  -0.98203  -0.64129  -0.84944  -0.76951  -1.11461
 -6.67500  -0.05158  -0.97530  -0.04731  -0.83906  -0.05585  -1.11154  -1.10627  -1.00277  -1.00573  -0.86830  -1.20681  -1.13724
 -6.65625  -0.10789  -0.97732  -0.09897  -0.84092  -0.11682  -1.11373  -1.61782  -1.03310  -1.47079  -0.89588  -1.76484  -1.17033
 -6.63750  -0.21045  -0.98127  -0.19304  -0.84454  -0.22785  -1.11800  -2.20617  -1.07447  -2.00567  -0.93349  -2.40666  -1.21545
 -6.61875  -0.38276  -0.98845  -0.35110  -0.85112  -0.41442  -1.12577  -2.80536  -1.12707  -2.55041  -0.98131  -3.06031  -1.27284
 -6.60000  -0.64917  -1.00062  -0.59548  -0.86229  -0.70287  -1.13895  -3.32644  -1.18944  -3.02413  -1.03801  -3.62875  -1.34087
 -6.58125  -1.02667  -1.01987  -0.94175  -0.87994  -1.11159  -1.15979  -3.67802  -1.25840  -3.34376  -1.10070  -4.01228  -1.41610
 -6.56250  -1.51405  -1.04826  -1.38882  -0.90598  -1.63928  -1.19053  -3.79219  -1.32951  -3.44755  -1.16535  -4.13683  -1.49367
 -6.54375  -2.08206  -1.08730  -1.90985  -0.94179  -2.25427  -1.23280  -3.64593  -1.39787  -3.31459  -1.22749  -3.97727  -1.56824
 -6.52500  -2.66985  -1.13736  -2.44902  -0.98771  -2.89067  -1.28700  -3.26865  -1.45916  -2.97160  -1.28321  -3.56571  -1.63510
 -6.50625  -3.19243  -1.19721  -2.92837  -1.04262  -3.45648  -1.35181  -2.73257  -1.51039  -2.48423  -1.32979  -2.98090  -1.69099
 -6.48750  -3.55957  -1.26396  -3.26515  -1.10384  -3.85399  -1.42407  -2.13017  -1.55033  -1.93658  -1.36610  -2.32376  -1.73456
 -6.46875  -3.70098  -1.33335  -3.39486  -1.16750  -4.00710  -1.49920  -1.54846  -1.57937  -1.40774  -1.39250  -1.68919  -1.76624
 -6.45000  -3.58821  -1.40063  -3.29142  -1.22921  -3.88500  -1.57205  -1.04961  -1.59905  -0.95422  -1.41039  -1.14500  -1.78770
 -6.43125  -3.24400  -1.46145  -2.97568  -1.28500  -3.51232  -1.63790  -0.66343  -1.61149  -0.60314  -1.42170  -0.72372  -1.80127
 -6.41250  -2.73481  -1.51273  -2.50860  -1.33204  -2.96101  -1.69342  -0.39102  -1.61882  -0.35549  -1.42836  -0.42656  -1.80927
 -6.39375  -2.14988  -1.55304  -1.97206  -1.36902  -2.32770  -1.73707  -0.21491  -1.62285  -0.19537  -1.43203  -0.23444  -1.81367
 -6.37500  -1.57595  -1.58259  -1.44560  -1.39612  -1.70630  -1.76906  -0.11014  -1.62491  -0.10013  -1.43390  -0.12015  -1.81592
 -6.35625  -1.07724  -1.60279  -0.98814  -1.41465  -1.16634  -1.79093  -0.05263  -1.62590  -0.04785  -1.43480  -0.05742  -1.81700
 -6.33750  -0.68663  -1.61566  -0.62984  -1.42646  -0.74342  -1.80487  -0.02345  -1.62634  -0.02132  -1.43520  -0.02559  -1.81748
 -6.31875  -0.40811  -1.62331  -0.37435  -1.43348  -0.44186  -1.81315  -0.00975  -1.62652  -0.00886  -1.43537  -0.01063  -1.81768
 -6.30000  -0.22618  -1.62756  -0.20748  -1.43737  -0.24489  -1.81774  -0.00378  -1.62659  -0.00343  -1.43543  -0.00412  -1.81775
 -6.28125  -0.11689  -1.62975  -0.10723  -1.43938  -0.12656  -1.82012  -0.00136  -1.62662  -0.00124  -1.43545  -0.00149  -1.81778
 -6.26250  -0.05633  -1.63080  -0.05167  -1.44035  -0.06099  -1.82126  -0.00046  -1.62663  -0.00042  -1.43546  -0.00050  -1.81779
 -6.24375  -0.02531  -1.63128  -0.02322  -1.44078  -0.02741  -1.82177  -0.00014  -1.62663  -0.00013  -1.43546  -0.00016  -1.81779
 -6.22500  -0.01061  -1.63148  -0.00973  -1.44096  -0.01148  -1.82199  -0.00004  -1.62663  -0.00004  -1.43546  -0.00005  -1.81779
 -6.20625  -0.00414  -1.63155  -0.00380  -1.44104  -0.00449  -1.82207  -0.00001  -1.62663  -0.00001  -1.43547  -0.00001  -1.81779
 -6.18750  -0.00151  -1.63158  -0.00139  -1.44106  -0.00163  -1.82210  -0.00000  -1.62663  -0.00000  -1.43547  -0.00000  -1.81779
 -6.16875  -0.00051  -1.63159  -0.00047  -1.44107  -0.00056  -1.82212  -0.00000  -1.62663  -0.00000  -1.43547  -0.00000  -1.81779
 -6.15000  -0.00016  -1.63160  -0.00015  -1.44107  -0.00018  -1.82212  -0.00000  -1.62663  -0.00000  -1.43547  -0.00000  -1.81779
 -6.13125  -0.00005  -1.63160  -0.00004  -1.44107  -0.00005  -1.82212  -0.00000  -1.62663  -0.00000  -1.43547  -0.00000  -1.81779
 -6.11250  -0.00001  -1.63160  -0.00001  -1.44107  -0.00001  -1.82212  -0.00000  -1.62663  -0.00000  -1.43547  -0.00000  -1.81779
 -6.09375  -0.00000  -1.63160  -0.00000  -1.44107  -0.00000  -1.82212  -0.00000  -1.62663  -0.00000  -1.43547  -0.00000  -1.81779
 -6.07500  -0.00000  -1.63160  -0.00000  -1.44107  -0.00000  -1.82212  -0.00000  -1.62663  -0.00000  -1.43547  -0.00000  -1.81779
 -6.05625  -0.00000  -1.63160  -0.00000  -1.44107  -0.00000  -1.82212  -0.00000  -1.62663  -0.00000  -1.43547  -0.00000  -1.81779
 -6.03750  -0.00000  -1.63160  -0.00000  -1.44107  -0.00000  -1.82212  -0.00000  -1.62663  -0.00000  -1.43547  -0.00000  -1.81779
 -6.01875  -0.00000  -1.63160  -0.00000  -1.44107  -0.00000  -1.82212  -0.00000  -1.62663  -0.00000  -1.43547  -0.00000  -1.81779
 -6.00000  -0.00000  -1.63160  -0.00000  -1.44107  -0.00000  -1.82212  -0.00000  -1.62663   0.00000  -1.43547  -0.00000  -1.81779
 -5.98125  -0.00000  -1.63160  -0.00000  -1.44107  -0.00000  -1.82212  -0.00000  -1.62663   0.00000  -1.43547  -0.00000  -1.81779
 -5.96250  -0.00000  -1.63160  -0.00000  -1.44107  -0.00000  -1.82212  -0.00000  -1.62663   0.00000  -1.43547  -0.00000  -1.81779
 -5.94375   0.00000  -1.63160   0.00000  -1.44107  -0.00000  -1.82212  -0.00000  -1.62663   0.00000  -1.43547  -0.00000  -1.81779
 -5.92500   0.00000  -1.63160   0.00000  -1.44107  -0.00000  -1.82212  -0.00000  -1.62663   0.00000  -1.43547  -0.00000  -1.81779
 -5.90625   0.00000  -1.63160   0.00000  -1.44107  -0.00000  -1.82212  -0.00000  -1.62663   0.00000  -1.43547  -0.00000  -1.81779
 -5.88750   0.00000  -1.63160   0.00000  -1.44107  -0.00000  -1.82212  -0.00000  -1.62663   0.00000  -1.43547  -0.00000  -1.81779
 -5.86875   0.00000  -1.63160   0.00000  -1.44107  -0.00000  -1.82212  -0.00000  -1.62663   0.00000  -1.43547  -0.00000  -1.81779
 -5.85000   0.00000  -1.63160   0.00000  -1.44107  -0.00000  -1.82212  -0.00000  -1.62663   0.00000  -1.43547  -0.00000  -1.81779
 -5.83125   0.00000  -1.63160   0.00000  -1.44107  -0.00000  -1.82212  -0.00000  -1.62663   0.00000  -1.43547  -0.00000  -1.81779
 -5.81250   0.00000  -1.63160   0.00000  -1.44107  -0.00000  -1.82212  -0.00000  -1.62663   0.00000  -1.43547  -0.00000  -1.81779
 -5.79375   0.00000  -1.63160   0.00001  -1.44107  -0.00000  -1.82212  -0.00000  -1.62663   0.00001  -1.43546  -0.00001  -1.81780
 -5.77500   0.00001  -1.63160   0.00002  -1.44107  -0.00000  -1.82212  -0.00000  -1.62663   0.00002  -1.43546  -0.00003  -1.81780
 -5.75625   0.00003  -1.63160   0.00007  -1.44107  -0.00000  -1.82212  -0.00001  -1.62663   0.00005  -1.43546  -0.00008  -1.81780