 vasp.5.3.5 31Mar14 (build Mar 16 2015 16:00:22) complex                        
  
 executed on           LinuxIFORT date 2019.10.01  15:57:59
 running on   24 total cores
 distrk:  each k-point on   24 cores,    1 groups
 distr:  one band on NCORES_PER_BAND=   6 cores,    4 groups


--------------------------------------------------------------------------------------------------------


 INCAR:
 POTCAR:    PAW_PBE C 08Apr2002                   
 POTCAR:    PAW_PBE O 08Apr2002                   
 POTCAR:    PAW_PBE C 08Apr2002                   
   VRHFIN =C: s2p2                                                              
   LEXCH  = PE                                                                  
   EATOM  =   147.1560 eV,   10.8157 Ry                                         
                                                                                
   TITEL  = PAW_PBE C 08Apr2002                                                 
   LULTRA =        F    use ultrasoft PP ?                                      
   IUNSCR =        1    unscreen: 0-lin 1-nonlin 2-no                           
   RPACOR =    1.200    partial core radius                                     
   POMASS =   12.011; ZVAL   =    4.000    mass and valenz                      
   RCORE  =    1.500    outmost cutoff radius                                   
   RWIGS  =    1.630; RWIGS  =    0.863    wigner-seitz radius (au A)           
   ENMAX  =  400.000; ENMIN  =  300.000 eV                                      
   ICORE  =        2    local potential                                         
   LCOR   =        T    correct aug charges                                     
   LPAW   =        T    paw PP                                                  
   EAUG   =  644.873                                                            
   DEXC   =    0.000                                                            
   RMAX   =    1.529    core radius for proj-oper                               
   RAUG   =    1.300    factor for augmentation sphere                          
   RDEP   =    1.501    radius for radial grids                                 
   RDEPT  =    1.300    core radius for aug-charge                              
                                                                                
   Atomic configuration                                                         
    4 entries                                                                   
     n  l   j            E        occ.                                          
     1  0  0.50      -273.3789   2.0000                                         
     2  0  0.50       -13.7508   2.0000                                         
     2  1  0.50        -5.2854   2.0000                                         
     3  2  1.50        -5.4423   0.0000                                         
   Description                                                                  
     l       E           TYP  RCUT    TYP  RCUT                                 
     0    -13.7508458     23  1.200                                             
     0     -8.2022199     23  1.200                                             
     1     -5.2854383     23  1.500                                             
     1     34.0145650     23  1.500                                             
     2     -5.4423304      7  1.500                                             
  local pseudopotential read in
  partial core-charges read in
  partial kinetic energy density read in
  atomic valenz-charges read in
  non local Contribution for L=           0  read in
    real space projection operators read in
  non local Contribution for L=           0  read in
    real space projection operators read in
  non local Contribution for L=           1  read in
    real space projection operators read in
  non local Contribution for L=           1  read in
    real space projection operators read in
    PAW grid and wavefunctions read in
 
   number of l-projection  operators is LMAX  =           4
   number of lm-projection operators is LMMAX =           8
 
 POTCAR:    PAW_PBE O 08Apr2002                   
   VRHFIN =O: s2p4                                                              
   LEXCH  = PE                                                                  
   EATOM  =   432.3788 eV,   31.7789 Ry                                         
                                                                                
   TITEL  = PAW_PBE O 08Apr2002                                                 
   LULTRA =        F    use ultrasoft PP ?                                      
   IUNSCR =        1    unscreen: 0-lin 1-nonlin 2-no                           
   RPACOR =    1.200    partial core radius                                     
   POMASS =   16.000; ZVAL   =    6.000    mass and valenz                      
   RCORE  =    1.520    outmost cutoff radius                                   
   RWIGS  =    1.550; RWIGS  =    0.820    wigner-seitz radius (au A)           
   ENMAX  =  400.000; ENMIN  =  300.000 eV                                      
   ICORE  =        2    local potential                                         
   LCOR   =        T    correct aug charges                                     
   LPAW   =        T    paw PP                                                  
   EAUG   =  605.392                                                            
   DEXC   =    0.000                                                            
   RMAX   =    1.553    core radius for proj-oper                               
   RAUG   =    1.300    factor for augmentation sphere                          
   RDEP   =    1.550    radius for radial grids                                 
   RDEPT  =    1.329    core radius for aug-charge                              
                                                                                
   Atomic configuration                                                         
    4 entries                                                                   
     n  l   j            E        occ.                                          
     1  0  0.50      -514.6923   2.0000                                         
     2  0  0.50       -23.9615   2.0000                                         
     2  1  0.50        -9.0305   4.0000                                         
     3  2  1.50        -9.5241   0.0000                                         
   Description                                                                  
     l       E           TYP  RCUT    TYP  RCUT                                 
     0    -23.9615318     23  1.200                                             
     0     -9.5240782     23  1.200                                             
     1     -9.0304911     23  1.520                                             
     1      8.1634956     23  1.520                                             
     2     -9.5240782      7  1.500                                             
  local pseudopotential read in
  partial core-charges read in
  partial kinetic energy density read in
  kinetic energy density of atom read in
  atomic valenz-charges read in
  non local Contribution for L=           0  read in
    real space projection operators read in
  non local Contribution for L=           0  read in
    real space projection operators read in
  non local Contribution for L=           1  read in
    real space projection operators read in
  non local Contribution for L=           1  read in
    real space projection operators read in
    PAW grid and wavefunctions read in
 
   number of l-projection  operators is LMAX  =           4
   number of lm-projection operators is LMMAX =           8
 

 ----------------------------------------------------------------------------- 
|                                                                             |
|  ADVICE TO THIS USER RUNNING 'VASP/VAMP'   (HEAR YOUR MASTER'S VOICE ...):  |
|                                                                             |
|      You have a (more or less) 'small supercell' and for smaller cells      |
|      it is recommended  to use the reciprocal-space projection scheme!      |
|      The real space optimization is not  efficient for small cells and it   |
|      is also less accurate ...                                              |
|      Therefore set LREAL=.FALSE. in the  INCAR file                         |
|                                                                             |
 ----------------------------------------------------------------------------- 

 Optimization of the real space projectors (new method)

 maximal supplied QI-value         = 25.13
 optimisation between [QCUT,QGAM] = [ 10.05, 20.36] = [ 28.30,116.06] Ry 
 Optimized for a Real-space Cutoff    1.30 Angstroem

   l    n(q)    QCUT    max X(q) W(low)/X(q) W(high)/X(q)  e(spline) 
   0      8    10.053   115.676    0.49E-03    0.72E-03    0.18E-06
   0      8    10.053    87.132    0.49E-03    0.71E-03    0.18E-06
   1      7    10.053     4.429    0.32E-03    0.31E-03    0.18E-06
   1      7    10.053     2.733    0.23E-03    0.19E-03    0.20E-06
 Optimization of the real space projectors (new method)

 maximal supplied QI-value         = 24.76
 optimisation between [QCUT,QGAM] = [ 10.15, 20.30] = [ 28.85,115.39] Ry 
 Optimized for a Real-space Cutoff    1.38 Angstroem

   l    n(q)    QCUT    max X(q) W(low)/X(q) W(high)/X(q)  e(spline) 
   0      8    10.150    20.381    0.22E-03    0.32E-03    0.29E-06
   0      8    10.150    15.268    0.23E-03    0.35E-03    0.30E-06
   1      8    10.150     5.964    0.46E-03    0.53E-03    0.21E-06
   1      8    10.150     5.382    0.38E-03    0.45E-03    0.19E-06
  PAW_PBE C 08Apr2002                   :
 energy of atom  1       EATOM= -147.1560
 kinetic energy error for atom=    0.0288 (will be added to EATOM!!)
  PAW_PBE O 08Apr2002                   :
 energy of atom  2       EATOM= -432.3788
 kinetic energy error for atom=    0.1156 (will be added to EATOM!!)
 
 
 POSCAR: C O                                     
  positions in cartesian coordinates
  No initial velocities read in
 exchange correlation table for  LEXCH =        8
   RHO(1)=    0.500       N(1)  =     2000
   RHO(2)=  100.500       N(2)  =     4000

 VTST: version 3.1, (03/28/14)

 CHAIN: initializing optimizer
 
 OPT: Using VASP Dynamics algorithm
 CHAIN: Read ICHAIN            0
 
 POSCAR: C O                                     
  positions in cartesian coordinates
  No initial velocities read in
 


--------------------------------------------------------------------------------------------------------


 ion  position               nearest neighbor table
   1  0.469  0.615  0.505-   2 1.14
   2  0.561  0.627  0.528-   1 1.14
 

IMPORTANT INFORMATION: All symmetrisations will be switched off!
NOSYMM: (Re-)initialisation of all symmetry stuff for point group C_1.

 
 
 KPOINTS: Auto generation                         

Automatic generation of k-mesh.
Space group operators:
 irot       det(A)        alpha          n_x          n_y          n_z        tau_x        tau_y        tau_z
    1     1.000000     0.000000     1.000000     0.000000     0.000000     0.000000     0.000000     0.000000
 
 Subroutine IBZKPT returns following result:
 ===========================================
 
 Found      2 irreducible k-points:
 
 Following reciprocal coordinates:
            Coordinates               Weight
  0.250000  0.250000  0.000000      2.000000
 -0.250000  0.250000  0.000000      2.000000
 
 Following cartesian coordinates:
            Coordinates               Weight
  0.020833  0.020661  0.000000      2.000000
 -0.020833  0.020661  0.000000      2.000000
 
 
 Subroutine IBZKPT_HF returns following result:
 ==============================================
 
 Found      4 k-points in 1st BZ
 the following      4 k-points will be used (e.g. in the exchange kernel)
 Following reciprocal coordinates:   # in IRBZ
  0.250000  0.250000  0.000000       1 t-inv F
 -0.250000  0.250000  0.000000       2 t-inv F
 -0.250000 -0.250000  0.000000       1 t-inv T
  0.250000 -0.250000  0.000000       2 t-inv T


--------------------------------------------------------------------------------------------------------




 Dimension of arrays:
   k-points           NKPTS =      2   k-points in BZ     NKDIM =      2   number of bands    NBANDS=     12
   number of dos      NEDOS =    301   number of ions     NIONS =      2
   non local maximal  LDIM  =      4   non local SUM 2l+1 LMDIM =      8
   total plane-waves  NPLWV = 216000
   max r-space proj   IRMAX =   1393   max aug-charges    IRDMAX=   1781
   dimension x,y,z NGX =    60 NGY =   60 NGZ =   60
   dimension x,y,z NGXF=   120 NGYF=  120 NGZF=  120
   support grid    NGXF=   120 NGYF=  120 NGZF=  120
   ions per type =               1   1
 NGX,Y,Z   is equivalent  to a cutoff of   8.31,  8.24,  8.18 a.u.
 NGXF,Y,Z  is equivalent  to a cutoff of  16.62, 16.49, 16.35 a.u.


 I would recommend the setting:
   dimension x,y,z NGX =    59 NGY =   59 NGZ =   60
 SYSTEM =  CO                                      
 POSCAR =  C O                                     

 Startparameter for this run:
   NWRITE =      3    write-flag & timer
   PREC   = normal    normal or accurate (medium, high low for compatibility)
   ISTART =      0    job   : 0-new  1-cont  2-samecut
   ICHARG =      1    charge: 1-file 2-atom 10-const
   ISPIN  =      2    spin polarized calculation?
   LNONCOLLINEAR =      F non collinear calculations
   LSORBIT =      F    spin-orbit coupling
   INIWAV =      1    electr: 0-lowe 1-rand  2-diag
   LASPH  =      F    aspherical Exc in radial PAW
   METAGGA=      F    non-selfconsistent MetaGGA calc.

 Electronic Relaxation 1
   ENCUT  =  400.0 eV  29.40 Ry    5.42 a.u.  19.57 19.73 19.90*2*pi/ulx,y,z
   ENINI  =  400.0     initial cutoff
   ENAUG  =  644.9 eV  augmentation charge cutoff
   NELM   =     60;   NELMIN=  2; NELMDL=  0     # of ELM steps 
   EDIFF  = 0.1E-05   stopping-criterion for ELM
   LREAL  =      T    real-space projection
   NLSPLINE    = F    spline interpolate recip. space projectors
   LCOMPAT=      F    compatible to vasp.4.4
   GGA_COMPAT  = T    GGA compatible to vasp.4.4-vasp.4.6
   LMAXPAW     = -100 max onsite density
   LMAXMIX     =    2 max onsite mixed and CHGCAR
   VOSKOWN=      0    Vosko Wilk Nusair interpolation
   ROPT   =   -0.00050  -0.00050
 Ionic relaxation
   EDIFFG = -.2E-01   stopping-criterion for IOM
   NSW    =     61    number of steps for IOM
   NBLOCK =      1;   KBLOCK =      1    inner block; outer block 
   IBRION =      5    ionic relax: 0-MD 1-quasi-New 2-CG
   NFREE  =      2    steps in history (QN), initial steepest desc. (CG)
   ISIF   =      2    stress and relaxation
   IWAVPR =     11    prediction:  0-non 1-charg 2-wave 3-comb
   ISYM   =      0    0-nonsym 1-usesym 2-fastsym
   LCORR  =      T    Harris-Foulkes like correction to forces

   POTIM  = 0.0100    time-step for ionic-motion
   TEIN   =    0.0    initial temperature
   TEBEG  =    0.0;   TEEND  =   0.0 temperature during run
   SMASS  =  -3.00    Nose mass-parameter (am)
   estimated Nose-frequenzy (Omega)   =  0.10E-29 period in steps =****** mass=  -0.329E-26a.u.
   SCALEE = 1.0000    scale energy and forces
   NPACO  =    256;   APACO  = 16.0  distance and # of slots for P.C.
   PSTRESS=    0.0 pullay stress

  Mass of Ions in am
   POMASS =  12.01 16.00
  Ionic Valenz
   ZVAL   =   4.00  6.00
  Atomic Wigner-Seitz radii
   RWIGS  =  -1.00 -1.00
  virtual crystal weights 
   VCA    =   1.00  1.00
   NELECT =      10.0000    total number of electrons
   NUPDOWN=      -1.0000    fix difference up-down

 DOS related values:
   EMIN   =  10.00;   EMAX   =-10.00  energy-range for DOS
   EFERMI =   0.00
   ISMEAR =     1;   SIGMA  =   0.10  broadening in eV -4-tet -1-fermi 0-gaus

 Electronic relaxation 2 (details)
   IALGO  =     68    algorithm
   LDIAG  =      T    sub-space diagonalisation (order eigenvalues)
   LSUBROT=      F    optimize rotation matrix (better conditioning)
   TURBO    =      0    0=normal 1=particle mesh
   IRESTART =      0    0=no restart 2=restart with 2 vectors
   NREBOOT  =      0    no. of reboots
   NMIN     =      0    reboot dimension
   EREF     =   0.00    reference energy to select bands
   IMIX   =      4    mixing-type and parameters
     AMIX     =   0.40;   BMIX     =  1.00
     AMIX_MAG =   1.60;   BMIX_MAG =  1.00
     AMIN     =   0.10
     WC   =   100.;   INIMIX=   1;  MIXPRE=   1;  MAXMIX= -45

 Intra band minimization:
   WEIMIN = 0.0010     energy-eigenvalue tresh-hold
   EBREAK =  0.21E-07  absolut break condition
   DEPER  =   0.30     relativ break condition  

   TIME   =   0.40     timestep for ELM

  volume/ion in A,a.u.               =     885.72      5977.13
  Fermi-wavevector in a.u.,A,eV,Ry     =   0.291496  0.550848  1.156086  0.084970
  Thomas-Fermi vector in A             =   1.151252
 
 Write flags
   LWAVE  =      T    write WAVECAR
   LCHARG =      T    write CHGCAR
   LVTOT  =      F    write LOCPOT, total local potential
   LVHAR  =      F    write LOCPOT, Hartree potential only
   LELF   =      F    write electronic localiz. function (ELF)
   LORBIT =     11    0 simple, 1 ext, 2 COOP (PROOUT)


 Dipole corrections
   LMONO  =      F    monopole corrections only (constant potential shift)
   LDIPOL =      F    correct potential (dipole corrections)
   IDIPOL =      0    1-x, 2-y, 3-z, 4-all directions 
   EPSILON=  1.0000000 bulk dielectric constant

 Exchange correlation treatment:
   GGA     =    PE    GGA type
   LEXCH   =     8    internal setting for exchange type
   VOSKOWN=      0    Vosko Wilk Nusair interpolation
   LHFCALC =     F    Hartree Fock is set to
   LHFONE  =     F    Hartree Fock one center treatment
   AEXX    =    0.0000 exact exchange contribution

 Linear response parameters
   LEPSILON=     F    determine dielectric tensor
   LRPA    =     F    only Hartree local field effects (RPA)
   LNABLA  =     F    use nabla operator in PAW spheres
   LVEL    =     F    velocity operator in full k-point grid
   LINTERFAST=   F  fast interpolation
   KINTER  =     0    interpolate to denser k-point grid
   CSHIFT  =0.1000    complex shift for real part using Kramers Kronig
   OMEGAMAX=  -1.0    maximum frequency
   DEG_THRESHOLD= 0.2000000E-02 threshold for treating states as degnerate
   RTIME   =    0.100 relaxation time in fs

 Orbital magnetization related:
   ORBITALMAG=     F  switch on orbital magnetization
   LCHIMAG   =     F  perturbation theory with respect to B field
   DQ        =  0.001000  dq finite difference perturbation B field



--------------------------------------------------------------------------------------------------------


 finite differences
   using selective dynamics as specified on POSCAR
   WARNING: If single coordinates had been selected the selection of coordinates
            is made according to the corresponding   d i r e c t   coordinates!
            Don't support selection of single cartesian coordinates -- sorry ...
  !
 charge density and potential will be updated during run
 spin polarized calculation
 RMM-DIIS sequential band-by-band and
  variant of blocked Davidson during initial phase
 perform sub-space diagonalisation
    before iterative eigenvector-optimisation
 modified Broyden-mixing scheme, WC =      100.0
 initial mixing is a Kerker type mixing with AMIX =  0.4000 and BMIX =      1.0000
 Hartree-type preconditioning will be used
 using additional bands            7
 real space projection scheme for non local part
 use partial core corrections
 calculate Harris-corrections to forces 
   (improved forces if not selfconsistent)
 use gradient corrections 
 use of overlap-Matrix (Vanderbilt PP)
 Methfessel and Paxton  Order N= 1 SIGMA  =   0.10


--------------------------------------------------------------------------------------------------------


  energy-cutoff  :      400.00
  volume of cell :     1771.44
      direct lattice vectors                 reciprocal lattice vectors
    12.000000000  0.000000000  0.000000000     0.083333333  0.000000000  0.000000000
     0.000000000 12.100000381  0.000000000     0.000000000  0.082644625  0.000000000
     0.000000000  0.000000000 12.199999809     0.000000000  0.000000000  0.081967214

  length of vectors
    12.000000000 12.100000381 12.199999809     0.083333333  0.082644625  0.081967214


 
 k-points in units of 2pi/SCALE and weight: Auto generation                         
   0.02083333  0.02066116  0.00000000       0.500
  -0.02083333  0.02066116  0.00000000       0.500
 
 k-points in reciprocal lattice and weights: Auto generation                         
   0.25000000  0.25000000  0.00000000       0.500
  -0.25000000  0.25000000  0.00000000       0.500
 
 position of ions in fractional coordinates (direct lattice) 
   0.46934797  0.61524352  0.50499481
   0.56087202  0.62730651  0.52819520
 
 position of ions in cartesian coordinates  (Angst):
   5.63217568  7.44444683  6.16093662
   6.73046422  7.59040901  6.44398138
 


--------------------------------------------------------------------------------------------------------


 k-point  1 :   0.2500 0.2500 0.0000  plane waves:   32172
 k-point  2 :  -0.2500 0.2500 0.0000  plane waves:   32172

 maximum and minimum number of plane-waves per node :      5406     5314

 maximum number of plane-waves:     32172
 maximum index in each direction: 
   IXMAX=   19   IYMAX=   19   IZMAX=   19
   IXMIN=  -19   IYMIN=  -19   IZMIN=  -19

 WARNING: aliasing errors must be expected set NGX to  78 to avoid them
 WARNING: aliasing errors must be expected set NGY to  78 to avoid them
 WARNING: aliasing errors must be expected set NGZ to  78 to avoid them
 aliasing errors are usually negligible using standard VASP settings
 and one can safely disregard these warnings

 real space projection operators:
  total allocation   :        149.75 KBytes
  max/ min on nodes  :         26.75         23.19


 parallel 3D FFT for wavefunctions:
    minimum data exchange during FFTs selected (reduces bandwidth)
 parallel 3D FFT for charge:
    minimum data exchange during FFTs selected (reduces bandwidth)


 total amount of memory used by VASP on root node    43449. kBytes
========================================================================

   base      :      30000. kBytes
   nonlr-proj:         77. kBytes
   fftplans  :       3591. kBytes
   grid      :       8736. kBytes
   one-center:          6. kBytes
   wavefun   :       1039. kBytes
 
     INWAV:  cpu time    0.00: real time    0.00
 Broyden mixing: mesh for mixing (old mesh)
   NGX = 39   NGY = 39   NGZ = 39
  (NGX  =120   NGY  =120   NGZ  =120)
  gives a total of  59319 points

 initial charge density was supplied:
 charge density of overlapping atoms calculated
 number of electron      10.0000000 magnetization       2.0000000
 keeping initial charge density in first step


--------------------------------------------------------------------------------------------------------


 Maximum index for non-local projection operator          226
 Maximum index for augmentation-charges           90 (set IRDMAX)


--------------------------------------------------------------------------------------------------------


 First call to EWALD:  gamma=   0.146
 Maximum number of real-space cells 3x 3x 3
 Maximum number of reciprocal cells 3x 3x 3

 FEWALD executed in parallel
    FEWALD:  cpu time    0.00: real time    0.00


----------------------------------------- Iteration    1(   1)  ---------------------------------------


    POTLOK:  cpu time    0.10: real time    0.10
    SETDIJ:  cpu time    0.00: real time    0.00
     EDDAV:  cpu time    0.14: real time    0.14
       DOS:  cpu time    0.00: real time    0.00
    --------------------------------------------
      LOOP:  cpu time    0.25: real time    0.26

 eigenvalue-minimisations  :   144
 total energy-change (2. order) : 0.6288399E+02  (-0.2212580E+03)
 number of electron      10.0000000 magnetization       2.0000000
 augmentation part       10.0000000 magnetization       2.0000000

 Free energy of the ion-electron system (eV)
  ---------------------------------------------------
  alpha Z        PSCENC =         0.24666799
  Ewald energy   TEWEN  =       133.95373630
  -Hartree energ DENC   =      -594.57918804
  -exchange      EXHF   =         0.00000000
  -V(xc)+E(xc)   XCENC  =        39.49414500
  PAW double counting   =       454.79982171     -457.15426643
  entropy T*S    EENTRO =        -0.01464859
  eigenvalues    EBANDS =       -93.25270282
  atomic energy  EATOM  =       579.39041991
  ---------------------------------------------------
  free energy    TOTEN  =        62.88398502 eV

  energy without entropy =       62.89863361  energy(sigma->0) =       62.88886788


--------------------------------------------------------------------------------------------------------




 average (electrostatic) potential at core
  the test charge radii are     0.6991  0.7215
  (the norm of the test charge is              1.0000)
       1 -64.1102       2 -86.8380
 
 
 
 E-fermi :   0.0590     XC(G=0):  -0.4484     alpha+bet : -0.0989


 spin component 1

 k-point     1 :       0.2500    0.2500    0.0000
  band No.  band energies     occupation 
      1     -29.3886      1.00000
      2     -11.9506      1.00000
      3      -6.2242      1.00000
      4      -4.1929      1.00000
      5      -2.7262      1.00000
      6       0.0849      0.28862
      7       0.7296     -0.00000
      8       1.1210     -0.00000
      9       1.8619     -0.00000
     10       2.5698     -0.00000
     11       2.7811     -0.00000
     12       3.5951      0.00000

 k-point     2 :      -0.2500    0.2500    0.0000
  band No.  band energies     occupation 
      1     -29.3095      1.00000
      2     -12.0020      1.00000
      3      -8.0075      1.00000
      4      -5.8867      1.00000
      5      -3.0973      1.00000
      6       0.0468      0.60250
      7       0.6697     -0.00000
      8       0.9160     -0.00000
      9       1.7096     -0.00000
     10       2.1580     -0.00000
     11       2.8204      0.00000
     12       4.5322      0.00000

 spin component 2

 k-point     1 :       0.2500    0.2500    0.0000
  band No.  band energies     occupation 
      1     -25.3381      1.00000
      2      -7.0076      1.00000
      3      -3.0284      1.00000
      4      -1.4307      1.00000
      5      -0.6334      1.00000
      6       0.4096     -0.00000
      7       0.8913     -0.00000
      8       1.3873     -0.00000
      9       2.2820     -0.00000
     10       2.4994     -0.00000
     11       2.7302     -0.00000
     12       3.1672      0.00000

 k-point     2 :      -0.2500    0.2500    0.0000
  band No.  band energies     occupation 
      1     -25.7624      1.00000
      2      -8.3437      1.00000
      3      -1.6117      1.00000
      4      -0.6290      1.00000
      5       0.1130      0.10889
      6       0.5455     -0.00000
      7       0.9095     -0.00000
      8       1.5508     -0.00000
      9       2.4133     -0.00000
     10       2.5887     -0.00000
     11       2.8545      0.00000
     12       3.5476      0.00000


--------------------------------------------------------------------------------------------------------


 soft charge-density along one line, spin component           1
         0         1         2         3         4         5         6         7         8         9
 total charge-density along one line
 
 soft charge-density along one line, spin component           2
         0         1         2         3         4         5         6         7         8         9
 total charge-density along one line
 
 pseudopotential strength for first ion, spin component:           1
 10.608  14.118   0.003   0.007   0.026  -0.012  -0.023  -0.089
 14.118  18.787   0.005   0.009   0.034  -0.016  -0.030  -0.118
  0.003   0.005  -4.686  -0.002  -0.007   9.169   0.003   0.012
  0.007   0.009  -0.002  -4.688  -0.014   0.003   9.174   0.024
  0.026   0.034  -0.007  -0.014  -4.738   0.012   0.024   9.261
 -0.012  -0.016   9.169   0.003   0.012 -20.095  -0.006  -0.022
 -0.023  -0.030   0.003   9.174   0.024  -0.006 -20.103  -0.042
 -0.089  -0.118   0.012   0.024   9.261  -0.022  -0.042 -20.257
 pseudopotential strength for first ion, spin component:           2
 10.485  13.949   0.003   0.006   0.025  -0.011  -0.022  -0.086
 13.949  18.556   0.004   0.009   0.033  -0.015  -0.029  -0.114
  0.003   0.004  -4.655  -0.002  -0.007   9.166   0.003   0.012
  0.006   0.009  -0.002  -4.658  -0.013   0.003   9.171   0.023
  0.025   0.033  -0.007  -0.013  -4.707   0.012   0.023   9.255
 -0.011  -0.015   9.166   0.003   0.012 -20.198  -0.006  -0.021
 -0.022  -0.029   0.003   9.171   0.023  -0.006 -20.206  -0.041
 -0.086  -0.114   0.012   0.023   9.255  -0.021  -0.041 -20.355
 total augmentation occupancy for first ion, spin component:           1
  2.000   0.000   0.000   0.000   0.000   0.000   0.000   0.000
  0.000   0.000   0.000   0.000   0.000   0.000   0.000   0.000
  0.000   0.000   0.667   0.000   0.000   0.000   0.000   0.000
  0.000   0.000   0.000   0.667   0.000   0.000   0.000   0.000
  0.000   0.000   0.000   0.000   0.667   0.000   0.000   0.000
  0.000   0.000   0.000   0.000   0.000   0.000   0.000   0.000
  0.000   0.000   0.000   0.000   0.000   0.000   0.000   0.000
  0.000   0.000   0.000   0.000   0.000   0.000   0.000   0.000
 total augmentation occupancy for first ion, spin component:           2
  0.500   0.000   0.000   0.000   0.000   0.000   0.000   0.000
  0.000   0.000   0.000   0.000   0.000   0.000   0.000   0.000
  0.000   0.000   0.167   0.000   0.000   0.000   0.000   0.000
  0.000   0.000   0.000   0.167   0.000   0.000   0.000   0.000
  0.000   0.000   0.000   0.000   0.167   0.000   0.000   0.000
  0.000   0.000   0.000   0.000   0.000   0.000   0.000   0.000
  0.000   0.000   0.000   0.000   0.000   0.000   0.000   0.000
  0.000   0.000   0.000   0.000   0.000   0.000   0.000   0.000


----------------------------------------- Iteration    1(   2)  ---------------------------------------


     EDDAV:  cpu time    0.14: real time    0.14
       DOS:  cpu time    0.00: real time    0.00
    --------------------------------------------
      LOOP:  cpu time    0.15: real time    0.15

 eigenvalue-minimisations  :   148
 total energy-change (2. order) :-0.6873639E+02  (-0.6459751E+02)
 number of electron      10.0000000 magnetization       2.0000000
 augmentation part       10.0000000 magnetization       2.0000000

 Free energy of the ion-electron system (eV)
  ---------------------------------------------------
  alpha Z        PSCENC =         0.24666799
  Ewald energy   TEWEN  =       133.95373630
  -Hartree energ DENC   =      -594.57918804
  -exchange      EXHF   =         0.00000000
  -V(xc)+E(xc)   XCENC  =        39.49414500
  PAW double counting   =       454.79982171     -457.15426643
  entropy T*S    EENTRO =         0.00144948
  eigenvalues    EBANDS =      -162.00519489
  atomic energy  EATOM  =       579.39041991
  ---------------------------------------------------
  free energy    TOTEN  =        -5.85240898 eV

  energy without entropy =       -5.85385845  energy(sigma->0) =       -5.85289213


--------------------------------------------------------------------------------------------------------




 average (electrostatic) potential at core
  the test charge radii are     0.6991  0.7215
  (the norm of the test charge is              1.0000)
       1 -64.1102       2 -86.8380
 
 
 
 E-fermi :  -8.4861     XC(G=0):  -0.4484     alpha+bet : -0.0989


 spin component 1

 k-point     1 :       0.2500    0.2500    0.0000
  band No.  band energies     occupation 
      1     -32.5992      1.00000
      2     -16.7363      1.00000
      3     -13.4819      1.00000
      4     -12.5764      1.00000
      5     -10.9301      1.00000
      6      -0.2478      0.00000
      7       0.2030      0.00000
      8       0.3594      0.00000
      9       0.7312      0.00000
     10       1.1753      0.00000
     11       1.3628      0.00000
     12       1.6760      0.00000

 k-point     2 :      -0.2500    0.2500    0.0000
  band No.  band energies     occupation 
      1     -32.6002      1.00000
      2     -16.8832      1.00000
      3     -14.0715      1.00000
      4     -12.4067      1.00000
      5     -11.1239      1.00000
      6      -0.2655      0.00000
      7       0.2114      0.00000
      8       0.3136      0.00000
      9       0.5883      0.00000
     10       0.9408      0.00000
     11       1.1279      0.00000
     12       1.4130      0.00000

 spin component 2

 k-point     1 :       0.2500    0.2500    0.0000
  band No.  band energies     occupation 
      1     -30.7078      1.00000
      2     -14.5347      1.00000
      3     -11.2361      1.00000
      4     -10.0215      1.00000
      5      -8.5703      1.00000
      6      -0.1122      0.00000
      7       0.4133      0.00000
      8       0.4525      0.00000
      9       0.7674      0.00000
     10       1.0753      0.00000
     11       1.3423      0.00000
     12       1.5836      0.00000

 k-point     2 :      -0.2500    0.2500    0.0000
  band No.  band energies     occupation 
      1     -30.7488      1.00000
      2     -15.1056      1.00000
      3     -11.1709      1.00000
      4      -9.5541      1.00000
      5      -8.9510      1.00000
      6      -0.8685      0.00000
      7      -0.1183      0.00000
      8       0.3936      0.00000
      9       0.8814      0.00000
     10       1.0885      0.00000
     11       1.2979      0.00000
     12       1.4845      0.00000


--------------------------------------------------------------------------------------------------------


 soft charge-density along one line, spin component           1
         0         1         2         3         4         5         6         7         8         9
 total charge-density along one line
 
 soft charge-density along one line, spin component           2
         0         1         2         3         4         5         6         7         8         9
 total charge-density along one line
 
 pseudopotential strength for first ion, spin component:           1
 10.608  14.118   0.003   0.007   0.026  -0.012  -0.023  -0.089
 14.118  18.787   0.005   0.009   0.034  -0.016  -0.030  -0.118
  0.003   0.005  -4.686  -0.002  -0.007   9.169   0.003   0.012
  0.007   0.009  -0.002  -4.688  -0.014   0.003   9.174   0.024
  0.026   0.034  -0.007  -0.014  -4.738   0.012   0.024   9.261
 -0.012  -0.016   9.169   0.003   0.012 -20.095  -0.006  -0.022
 -0.023  -0.030   0.003   9.174   0.024  -0.006 -20.103  -0.042
 -0.089  -0.118   0.012   0.024   9.261  -0.022  -0.042 -20.257
 pseudopotential strength for first ion, spin component:           2
 10.485  13.949   0.003   0.006   0.025  -0.011  -0.022  -0.086
 13.949  18.556   0.004   0.009   0.033  -0.015  -0.029  -0.114
  0.003   0.004  -4.655  -0.002  -0.007   9.166   0.003   0.012
  0.006   0.009  -0.002  -4.658  -0.013   0.003   9.171   0.023
  0.025   0.033  -0.007  -0.013  -4.707   0.012   0.023   9.255
 -0.011  -0.015   9.166   0.003   0.012 -20.198  -0.006  -0.021
 -0.022  -0.029   0.003   9.171   0.023  -0.006 -20.206  -0.041
 -0.086  -0.114   0.012   0.023   9.255  -0.021  -0.041 -20.355
 total augmentation occupancy for first ion, spin component:           1
  2.000   0.000   0.000   0.000   0.000   0.000   0.000   0.000
  0.000   0.000   0.000   0.000   0.000   0.000   0.000   0.000
  0.000   0.000   0.667   0.000   0.000   0.000   0.000   0.000
  0.000   0.000   0.000   0.667   0.000   0.000   0.000   0.000
  0.000   0.000   0.000   0.000   0.667   0.000   0.000   0.000
  0.000   0.000   0.000   0.000   0.000   0.000   0.000   0.000
  0.000   0.000   0.000   0.000   0.000   0.000   0.000   0.000
  0.000   0.000   0.000   0.000   0.000   0.000   0.000   0.000
 total augmentation occupancy for first ion, spin component:           2
  0.500   0.000   0.000   0.000   0.000   0.000   0.000   0.000
  0.000   0.000   0.000   0.000   0.000   0.000   0.000   0.000
  0.000   0.000   0.167   0.000   0.000   0.000   0.000   0.000
  0.000   0.000   0.000   0.167   0.000   0.000   0.000   0.000
  0.000   0.000   0.000   0.000   0.167   0.000   0.000   0.000
  0.000   0.000   0.000   0.000   0.000   0.000   0.000   0.000
  0.000   0.000   0.000   0.000   0.000   0.000   0.000   0.000
  0.000   0.000   0.000   0.000   0.000   0.000   0.000   0.000


----------------------------------------- Iteration    1(   3)  ---------------------------------------


     EDDAV:  cpu time    0.14: real time    0.14
       DOS:  cpu time    0.00: real time    0.00
    --------------------------------------------
      LOOP:  cpu time    0.15: real time    0.16

 eigenvalue-minimisations  :   160
 total energy-change (2. order) :-0.8802851E+01  (-0.8770683E+01)
 number of electron      10.0000000 magnetization       2.0000000
 augmentation part       10.0000000 magnetization       2.0000000

 Free energy of the ion-electron system (eV)
  ---------------------------------------------------
  alpha Z        PSCENC =         0.24666799
  Ewald energy   TEWEN  =       133.95373630
  -Hartree energ DENC   =      -594.57918804
  -exchange      EXHF   =         0.00000000
  -V(xc)+E(xc)   XCENC  =        39.49414500
  PAW double counting   =       454.79982171     -457.15426643
  entropy T*S    EENTRO =         0.00298118
  eigenvalues    EBANDS =      -170.80957761
  atomic energy  EATOM  =       579.39041991
  ---------------------------------------------------
  free energy    TOTEN  =       -14.65525999 eV

  energy without entropy =      -14.65824117  energy(sigma->0) =      -14.65625371


--------------------------------------------------------------------------------------------------------




 average (electrostatic) potential at core
  the test charge radii are     0.6991  0.7215
  (the norm of the test charge is              1.0000)
       1 -64.1102       2 -86.8380
 
 
 
 E-fermi :  -9.7083     XC(G=0):  -0.4484     alpha+bet : -0.0989


 spin component 1

 k-point     1 :       0.2500    0.2500    0.0000
  band No.  band energies     occupation 
      1     -32.6190      1.00000
      2     -17.0314      1.00000
      3     -14.3209      1.00000
      4     -14.3152      1.00000
      5     -11.2537      1.00000
      6      -3.7047      0.00000
      7      -3.4166      0.00000
      8      -0.3116      0.00000
      9       0.3058      0.00000
     10       0.3733      0.00000
     11       0.6771      0.00000
     12       0.9449      0.00000

 k-point     2 :      -0.2500    0.2500    0.0000
  band No.  band energies     occupation 
      1     -32.6190      1.00000
      2     -17.0319      1.00000
      3     -14.3225      1.00000
      4     -14.3141      1.00000
      5     -11.2542      1.00000
      6      -3.7834      0.00000
      7      -3.5999      0.00000
      8      -0.3114      0.00000
      9       0.2773      0.00000
     10       0.3772      0.00000
     11       0.6686      0.00000
     12       0.8591      0.00000

 spin component 2

 k-point     1 :       0.2500    0.2500    0.0000
  band No.  band energies     occupation 
      1     -30.7714      1.00000
      2     -15.3769      1.00000
      3     -12.6998      1.00000
      4     -12.6344      1.00000
      5      -9.7851      0.98123
      6      -1.9497      0.00000
      7      -0.2072      0.00000
      8      -0.1408      0.00000
      9       0.3851      0.00000
     10       0.7371      0.00000
     11       0.8321      0.00000
     12       0.9540      0.00000

 k-point     2 :      -0.2500    0.2500    0.0000
  band No.  band energies     occupation 
      1     -30.7720      1.00000
      2     -15.3813      1.00000
      3     -12.7134      1.00000
      4     -12.5997      1.00000
      5      -9.8031      1.01877
      6      -2.4569      0.00000
      7      -1.4176      0.00000
      8      -0.1573      0.00000
      9       0.4012      0.00000
     10       0.4650      0.00000
     11       0.8204      0.00000
     12       0.9527      0.00000


--------------------------------------------------------------------------------------------------------


 soft charge-density along one line, spin component           1
         0         1         2         3         4         5         6         7         8         9
 total charge-density along one line
 
 soft charge-density along one line, spin component           2
         0         1         2         3         4         5         6         7         8         9
 total charge-density along one line
 
 pseudopotential strength for first ion, spin component:           1
 10.608  14.118   0.003   0.007   0.026  -0.012  -0.023  -0.089
 14.118  18.787   0.005   0.009   0.034  -0.016  -0.030  -0.118
  0.003   0.005  -4.686  -0.002  -0.007   9.169   0.003   0.012
  0.007   0.009  -0.002  -4.688  -0.014   0.003   9.174   0.024
  0.026   0.034  -0.007  -0.014  -4.738   0.012   0.024   9.261
 -0.012  -0.016   9.169   0.003   0.012 -20.095  -0.006  -0.022
 -0.023  -0.030   0.003   9.174   0.024  -0.006 -20.103  -0.042
 -0.089  -0.118   0.012   0.024   9.261  -0.022  -0.042 -20.257
 pseudopotential strength for first ion, spin component:           2
 10.485  13.949   0.003   0.006   0.025  -0.011  -0.022  -0.086
 13.949  18.556   0.004   0.009   0.033  -0.015  -0.029  -0.114
  0.003   0.004  -4.655  -0.002  -0.007   9.166   0.003   0.012
  0.006   0.009  -0.002  -4.658  -0.013   0.003   9.171   0.023
  0.025   0.033  -0.007  -0.013  -4.707   0.012   0.023   9.255
 -0.011  -0.015   9.166   0.003   0.012 -20.198  -0.006  -0.021
 -0.022  -0.029   0.003   9.171   0.023  -0.006 -20.206  -0.041
 -0.086  -0.114   0.012   0.023   9.255  -0.021  -0.041 -20.355
 total augmentation occupancy for first ion, spin component:           1
  2.000   0.000   0.000   0.000   0.000   0.000   0.000   0.000
  0.000   0.000   0.000   0.000   0.000   0.000   0.000   0.000
  0.000   0.000   0.667   0.000   0.000   0.000   0.000   0.000
  0.000   0.000   0.000   0.667   0.000   0.000   0.000   0.000
  0.000   0.000   0.000   0.000   0.667   0.000   0.000   0.000
  0.000   0.000   0.000   0.000   0.000   0.000   0.000   0.000
  0.000   0.000   0.000   0.000   0.000   0.000   0.000   0.000
  0.000   0.000   0.000   0.000   0.000   0.000   0.000   0.000
 total augmentation occupancy for first ion, spin component:           2
  0.500   0.000   0.000   0.000   0.000   0.000   0.000   0.000
  0.000   0.000   0.000   0.000   0.000   0.000   0.000   0.000
  0.000   0.000   0.167   0.000   0.000   0.000   0.000   0.000
  0.000   0.000   0.000   0.167   0.000   0.000   0.000   0.000
  0.000   0.000   0.000   0.000   0.167   0.000   0.000   0.000
  0.000   0.000   0.000   0.000   0.000   0.000   0.000   0.000
  0.000   0.000   0.000   0.000   0.000   0.000   0.000   0.000
  0.000   0.000   0.000   0.000   0.000   0.000   0.000   0.000


----------------------------------------- Iteration    1(   4)  ---------------------------------------


     EDDAV:  cpu time    0.13: real time    0.13
       DOS:  cpu time    0.00: real time    0.00
    --------------------------------------------
      LOOP:  cpu time    0.13: real time    0.14

 eigenvalue-minimisations  :   136
 total energy-change (2. order) :-0.1786303E+00  (-0.1784583E+00)
 number of electron      10.0000000 magnetization       2.0000000
 augmentation part       10.0000000 magnetization       2.0000000

 Free energy of the ion-electron system (eV)
  ---------------------------------------------------
  alpha Z        PSCENC =         0.24666799
  Ewald energy   TEWEN  =       133.95373630
  -Hartree energ DENC   =      -594.57918804
  -exchange      EXHF   =         0.00000000
  -V(xc)+E(xc)   XCENC  =        39.49414500
  PAW double counting   =       454.79982171     -457.15426643
  entropy T*S    EENTRO =         0.00289895
  eigenvalues    EBANDS =      -170.98812571
  atomic energy  EATOM  =       579.39041991
  ---------------------------------------------------
  free energy    TOTEN  =       -14.83389032 eV

  energy without entropy =      -14.83678927  energy(sigma->0) =      -14.83485664


--------------------------------------------------------------------------------------------------------




 average (electrostatic) potential at core
  the test charge radii are     0.6991  0.7215
  (the norm of the test charge is              1.0000)
       1 -64.1102       2 -86.8380
 
 
 
 E-fermi :  -9.7314     XC(G=0):  -0.4484     alpha+bet : -0.0989


 spin component 1

 k-point     1 :       0.2500    0.2500    0.0000
  band No.  band energies     occupation 
      1     -32.6190      1.00000
      2     -17.0320      1.00000
      3     -14.3230      1.00000
      4     -14.3230      1.00000
      5     -11.2544      1.00000
      6      -4.0571      0.00000
      7      -4.0518      0.00000
      8      -0.3127      0.00000
      9       0.2569      0.00000
     10       0.3590      0.00000
     11       0.6553      0.00000
     12       0.8479      0.00000

 k-point     2 :      -0.2500    0.2500    0.0000
  band No.  band energies     occupation 
      1     -32.6190      1.00000
      2     -17.0320      1.00000
      3     -14.3230      1.00000
      4     -14.3229      1.00000
      5     -11.2544      1.00000
      6      -4.0590      0.00000
      7      -4.0558      0.00000
      8      -0.3120      0.00000
      9       0.2580      0.00000
     10       0.3539      0.00000
     11       0.6564      0.00000
     12       0.8496      0.00000

 spin component 2

 k-point     1 :       0.2500    0.2500    0.0000
  band No.  band energies     occupation 
      1     -30.7721      1.00000
      2     -15.3852      1.00000
      3     -12.7322      1.00000
      4     -12.7317      1.00000
      5      -9.8155      0.99993
      6      -2.6764      0.00000
      7      -2.5401      0.00000
      8      -0.1599      0.00000
      9       0.3720      0.00000
     10       0.4801      0.00000
     11       0.7991      0.00000
     12       0.9294      0.00000

 k-point     2 :      -0.2500    0.2500    0.0000
  band No.  band energies     occupation 
      1     -30.7721      1.00000
      2     -15.3852      1.00000
      3     -12.7321      1.00000
      4     -12.7319      1.00000
      5      -9.8156      1.00007
      6      -2.6788      0.00000
      7      -2.6635      0.00000
      8      -0.1596      0.00000
      9       0.3636      0.00000
     10       0.4474      0.00000
     11       0.7986      0.00000
     12       0.9344      0.00000


--------------------------------------------------------------------------------------------------------


 soft charge-density along one line, spin component           1
         0         1         2         3         4         5         6         7         8         9
 total charge-density along one line
 
 soft charge-density along one line, spin component           2
         0         1         2         3         4         5         6         7         8         9
 total charge-density along one line
 
 pseudopotential strength for first ion, spin component:           1
 10.608  14.118   0.003   0.007   0.026  -0.012  -0.023  -0.089
 14.118  18.787   0.005   0.009   0.034  -0.016  -0.030  -0.118
  0.003   0.005  -4.686  -0.002  -0.007   9.169   0.003   0.012
  0.007   0.009  -0.002  -4.688  -0.014   0.003   9.174   0.024
  0.026   0.034  -0.007  -0.014  -4.738   0.012   0.024   9.261
 -0.012  -0.016   9.169   0.003   0.012 -20.095  -0.006  -0.022
 -0.023  -0.030   0.003   9.174   0.024  -0.006 -20.103  -0.042
 -0.089  -0.118   0.012   0.024   9.261  -0.022  -0.042 -20.257
 pseudopotential strength for first ion, spin component:           2
 10.485  13.949   0.003   0.006   0.025  -0.011  -0.022  -0.086
 13.949  18.556   0.004   0.009   0.033  -0.015  -0.029  -0.114
  0.003   0.004  -4.655  -0.002  -0.007   9.166   0.003   0.012
  0.006   0.009  -0.002  -4.658  -0.013   0.003   9.171   0.023
  0.025   0.033  -0.007  -0.013  -4.707   0.012   0.023   9.255
 -0.011  -0.015   9.166   0.003   0.012 -20.198  -0.006  -0.021
 -0.022  -0.029   0.003   9.171   0.023  -0.006 -20.206  -0.041
 -0.086  -0.114   0.012   0.023   9.255  -0.021  -0.041 -20.355
 total augmentation occupancy for first ion, spin component:           1
  2.000   0.000   0.000   0.000   0.000   0.000   0.000   0.000
  0.000   0.000   0.000   0.000   0.000   0.000   0.000   0.000
  0.000   0.000   0.667   0.000   0.000   0.000   0.000   0.000
  0.000   0.000   0.000   0.667   0.000   0.000   0.000   0.000
  0.000   0.000   0.000   0.000   0.667   0.000   0.000   0.000
  0.000   0.000   0.000   0.000   0.000   0.000   0.000   0.000
  0.000   0.000   0.000   0.000   0.000   0.000   0.000   0.000
  0.000   0.000   0.000   0.000   0.000   0.000   0.000   0.000
 total augmentation occupancy for first ion, spin component:           2
  0.500   0.000   0.000   0.000   0.000   0.000   0.000   0.000
  0.000   0.000   0.000   0.000   0.000   0.000   0.000   0.000
  0.000   0.000   0.167   0.000   0.000   0.000   0.000   0.000
  0.000   0.000   0.000   0.167   0.000   0.000   0.000   0.000
  0.000   0.000   0.000   0.000   0.167   0.000   0.000   0.000
  0.000   0.000   0.000   0.000   0.000   0.000   0.000   0.000
  0.000   0.000   0.000   0.000   0.000   0.000   0.000   0.000
  0.000   0.000   0.000   0.000   0.000   0.000   0.000   0.000


----------------------------------------- Iteration    1(   5)  ---------------------------------------


     EDDAV:  cpu time    0.13: real time    0.13
       DOS:  cpu time    0.00: real time    0.00
    CHARGE:  cpu time    0.01: real time    0.01
    MIXING:  cpu time    0.00: real time    0.00
    --------------------------------------------
      LOOP:  cpu time    0.15: real time    0.15

 eigenvalue-minimisations  :   132
 total energy-change (2. order) :-0.4683789E-03  (-0.4683720E-03)
 number of electron       9.9999974 magnetization       1.3291631
 augmentation part        0.7218437 magnetization       1.3391810

 Broyden mixing:
  rms(total) = 0.10354E+01    rms(broyden)= 0.10345E+01
  rms(prec ) = 0.10964E+01
  weight for this iteration     100.00

 Free energy of the ion-electron system (eV)
  ---------------------------------------------------
  alpha Z        PSCENC =         0.24666799
  Ewald energy   TEWEN  =       133.95373630
  -Hartree energ DENC   =      -594.57918804
  -exchange      EXHF   =         0.00000000
  -V(xc)+E(xc)   XCENC  =        39.49414500
  PAW double counting   =       454.79982171     -457.15426643
  entropy T*S    EENTRO =         0.00289895
  eigenvalues    EBANDS =      -170.98859409
  atomic energy  EATOM  =       579.39041991
  ---------------------------------------------------
  free energy    TOTEN  =       -14.83435870 eV

  energy without entropy =      -14.83725765  energy(sigma->0) =      -14.83532502


--------------------------------------------------------------------------------------------------------




 average (electrostatic) potential at core
  the test charge radii are     0.6991  0.7215
  (the norm of the test charge is              1.0000)
       1 -64.1102       2 -86.8380
 
 
 
 E-fermi :  -9.7314     XC(G=0):  -0.4484     alpha+bet : -0.0989


 spin component 1

 k-point     1 :       0.2500    0.2500    0.0000
  band No.  band energies     occupation 
      1     -32.6190      1.00000
      2     -17.0320      1.00000
      3     -14.3230      1.00000
      4     -14.3230      1.00000
      5     -11.2544      1.00000
      6      -4.0629      0.00000
      7      -4.0626      0.00000
      8      -0.3127      0.00000
      9       0.2567      0.00000
     10       0.3590      0.00000
     11       0.6551      0.00000
     12       0.8392      0.00000

 k-point     2 :      -0.2500    0.2500    0.0000
  band No.  band energies     occupation 
      1     -32.6190      1.00000
      2     -17.0320      1.00000
      3     -14.3230      1.00000
      4     -14.3229      1.00000
      5     -11.2544      1.00000
      6      -4.0630      0.00000
      7      -4.0628      0.00000
      8      -0.3120      0.00000
      9       0.2562      0.00000
     10       0.3529      0.00000
     11       0.6556      0.00000
     12       0.8487      0.00000

 spin component 2

 k-point     1 :       0.2500    0.2500    0.0000
  band No.  band energies     occupation 
      1     -30.7721      1.00000
      2     -15.3852      1.00000
      3     -12.7322      1.00000
      4     -12.7322      1.00000
      5      -9.8156      0.99999
      6      -2.6855      0.00000
      7      -2.6793      0.00000
      8      -0.1607      0.00000
      9       0.3658      0.00000
     10       0.4516      0.00000
     11       0.7967      0.00000
     12       0.9242      0.00000

 k-point     2 :      -0.2500    0.2500    0.0000
  band No.  band energies     occupation 
      1     -30.7721      1.00000
      2     -15.3852      1.00000
      3     -12.7322      1.00000
      4     -12.7321      1.00000
      5      -9.8156      1.00001
      6      -2.6867      0.00000
      7      -2.6862      0.00000
      8      -0.1596      0.00000
      9       0.3628      0.00000
     10       0.4470      0.00000
     11       0.7972      0.00000
     12       0.9333      0.00000


--------------------------------------------------------------------------------------------------------


 soft charge-density along one line, spin component           1
         0         1         2         3         4         5         6         7         8         9
 total charge-density along one line
 
 soft charge-density along one line, spin component           2
         0         1         2         3         4         5         6         7         8         9
 total charge-density along one line
 
 pseudopotential strength for first ion, spin component:           1
 10.608  14.118   0.003   0.007   0.026  -0.012  -0.023  -0.089
 14.118  18.787   0.005   0.009   0.034  -0.016  -0.030  -0.118
  0.003   0.005  -4.686  -0.002  -0.007   9.169   0.003   0.012
  0.007   0.009  -0.002  -4.688  -0.014   0.003   9.174   0.024
  0.026   0.034  -0.007  -0.014  -4.738   0.012   0.024   9.261
 -0.012  -0.016   9.169   0.003   0.012 -20.095  -0.006  -0.022
 -0.023  -0.030   0.003   9.174   0.024  -0.006 -20.103  -0.042
 -0.089  -0.118   0.012   0.024   9.261  -0.022  -0.042 -20.257
 pseudopotential strength for first ion, spin component:           2
 10.485  13.949   0.003   0.006   0.025  -0.011  -0.022  -0.086
 13.949  18.556   0.004   0.009   0.033  -0.015  -0.029  -0.114
  0.003   0.004  -4.655  -0.002  -0.007   9.166   0.003   0.012
  0.006   0.009  -0.002  -4.658  -0.013   0.003   9.171   0.023
  0.025   0.033  -0.007  -0.013  -4.707   0.012   0.023   9.255
 -0.011  -0.015   9.166   0.003   0.012 -20.198  -0.006  -0.021
 -0.022  -0.029   0.003   9.171   0.023  -0.006 -20.206  -0.041
 -0.086  -0.114   0.012   0.023   9.255  -0.021  -0.041 -20.355
 total augmentation occupancy for first ion, spin component:           1
  6.894  -3.176   0.283   0.549   2.129   0.049   0.095   0.368
 -3.176   1.964  -0.222  -0.431  -1.670  -0.030  -0.058  -0.224
  0.283  -0.222   0.767   0.048   0.185   0.057   0.005   0.019
  0.549  -0.431   0.048   0.834   0.360   0.005   0.064   0.037
  2.129  -1.670   0.185   0.360   2.138   0.019   0.037   0.197
  0.049  -0.030   0.057   0.005   0.019   0.004   0.001   0.003
  0.095  -0.058   0.005   0.064   0.037   0.001   0.005   0.006
  0.368  -0.224   0.019   0.037   0.197   0.003   0.006   0.026
 total augmentation occupancy for first ion, spin component:           2
  0.321  -0.159   0.002   0.004   0.013   0.001   0.002   0.008
 -0.159   0.072  -0.003  -0.006  -0.021  -0.001  -0.002  -0.006
  0.002  -0.003  -0.000   0.001   0.002   0.000   0.000   0.000
  0.004  -0.006   0.001   0.000   0.004   0.000   0.001   0.001
  0.013  -0.021   0.002   0.004   0.014   0.000   0.001   0.002
  0.001  -0.001   0.000   0.000   0.000   0.000   0.000   0.000
  0.002  -0.002   0.000   0.001   0.001   0.000   0.000   0.000
  0.008  -0.006   0.000   0.001   0.002   0.000   0.000   0.000


----------------------------------------- Iteration    1(   6)  ---------------------------------------


    POTLOK:  cpu time    0.09: real time    0.09
    SETDIJ:  cpu time    0.00: real time    0.00
    EDDIAG:  cpu time    0.02: real time    0.02
  RMM-DIIS:  cpu time    0.08: real time    0.08
    ORTHCH:  cpu time    0.00: real time    0.00
       DOS:  cpu time    0.00: real time    0.00
    CHARGE:  cpu time    0.01: real time    0.01
    MIXING:  cpu time    0.01: real time    0.01
    --------------------------------------------
      LOOP:  cpu time    0.22: real time    0.23

 eigenvalue-minimisations  :    96
 total energy-change (2. order) : 0.5347065E+01  (-0.5532614E+00)
 number of electron       9.9999977 magnetization       0.8903085
 augmentation part        0.6607134 magnetization       0.8637206

 Broyden mixing:
  rms(total) = 0.40860E+00    rms(broyden)= 0.40823E+00
  rms(prec ) = 0.44880E+00
  weight for this iteration     100.00

 eigenvalues of (default mixing * dielectric matrix)
  average eigenvalue GAMMA=   0.9073
  0.9073

 Free energy of the ion-electron system (eV)
  ---------------------------------------------------
  alpha Z        PSCENC =         0.24666799
  Ewald energy   TEWEN  =       133.95373630
  -Hartree energ DENC   =      -608.38950930
  -exchange      EXHF   =         0.00000000
  -V(xc)+E(xc)   XCENC  =        44.46310041
  PAW double counting   =       600.00057729     -602.52488632
  entropy T*S    EENTRO =         0.00289895
  eigenvalues    EBANDS =      -156.63029921
  atomic energy  EATOM  =       579.39041991
  ---------------------------------------------------
  free energy    TOTEN  =        -9.48729398 eV

  energy without entropy =       -9.49019293  energy(sigma->0) =       -9.48826030


--------------------------------------------------------------------------------------------------------




 average (electrostatic) potential at core
  the test charge radii are     0.6991  0.7215
  (the norm of the test charge is              1.0000)
       1 -63.3077       2 -83.8789
 
 
 
 E-fermi :  -9.4829     XC(G=0):   0.2041     alpha+bet : -0.0989


 spin component 1

 k-point     1 :       0.2500    0.2500    0.0000
  band No.  band energies     occupation 
      1     -29.8356      1.00000
      2     -14.5123      1.00000
      3     -12.1601      1.00000
      4     -12.1599      1.00000
      5     -10.0225      1.00000
      6      -2.7486      0.00000
      7      -2.7484      0.00000
      8      -0.1900      0.00000
      9       0.4173      0.00000
     10       0.5210      0.00000
     11       0.7407      0.00000
     12       0.9300      0.00000

 k-point     2 :      -0.2500    0.2500    0.0000
  band No.  band energies     occupation 
      1     -29.8356      1.00000
      2     -14.5123      1.00000
      3     -12.1600      1.00000
      4     -12.1599      1.00000
      5     -10.0225      1.00000
      6      -2.7483      0.00000
      7      -2.7486      0.00000
      8      -0.1914      0.00000
      9       0.4098      0.00000
     10       0.5239      0.00000
     11       0.7406      0.00000
     12       0.9340      0.00000

 spin component 2

 k-point     1 :       0.2500    0.2500    0.0000
  band No.  band energies     occupation 
      1     -30.0739      1.00000
      2     -14.4665      1.00000
      3     -11.9170      1.00000
      4     -11.9156      1.00000
      5      -9.5671      1.00002
      6      -2.0277      0.00000
      7      -2.0151      0.00000
      8       0.2521      0.00000
      9       0.7399      0.00000
     10       1.0238      0.00000
     11       1.4547      0.00000
     12       1.2017      0.00000

 k-point     2 :      -0.2500    0.2500    0.0000
  band No.  band energies     occupation 
      1     -30.0739      1.00000
      2     -14.4664      1.00000
      3     -11.9170      1.00000
      4     -11.9157      1.00000
      5      -9.5670      0.99998
      6      -2.0301      0.00000
      7      -2.0220      0.00000
      8       0.2562      0.00000
      9       0.7313      0.00000
     10       1.0877      0.00000
     11       1.4564      0.00000
     12       1.1529      0.00000


--------------------------------------------------------------------------------------------------------


 soft charge-density along one line, spin component           1
         0         1         2         3         4         5         6         7         8         9
 total charge-density along one line
 
 soft charge-density along one line, spin component           2
         0         1         2         3         4         5         6         7         8         9
 total charge-density along one line
 
 pseudopotential strength for first ion, spin component:           1
 10.489  13.955   0.003   0.006   0.023  -0.010  -0.020  -0.077
 13.955  18.566   0.004   0.008   0.030  -0.013  -0.026  -0.101
  0.003   0.004  -4.637  -0.001  -0.004   9.106   0.002   0.007
  0.006   0.008  -0.001  -4.638  -0.008   0.002   9.109   0.013
  0.023   0.030  -0.004  -0.008  -4.668   0.007   0.013   9.156
 -0.010  -0.013   9.106   0.002   0.007 -20.037  -0.002  -0.010
 -0.020  -0.026   0.002   9.109   0.013  -0.002 -20.041  -0.019
 -0.077  -0.101   0.007   0.013   9.156  -0.010  -0.019 -20.113
 pseudopotential strength for first ion, spin component:           2
 10.522  14.001   0.003   0.007   0.026  -0.011  -0.022  -0.085
 14.001  18.629   0.004   0.009   0.034  -0.015  -0.029  -0.113
  0.003   0.004  -4.624  -0.001  -0.004   9.050   0.002   0.006
  0.007   0.009  -0.001  -4.625  -0.008   0.002   9.053   0.012
  0.026   0.034  -0.004  -0.008  -4.653   0.006   0.012   9.096
 -0.011  -0.015   9.050   0.002   0.006 -19.864  -0.003  -0.010
 -0.022  -0.029   0.002   9.053   0.012  -0.003 -19.868  -0.019
 -0.085  -0.113   0.006   0.012   9.096  -0.010  -0.019 -19.936
 total augmentation occupancy for first ion, spin component:           1
  7.002  -3.168   0.272   0.528   2.043   0.048   0.093   0.359
 -3.168   1.904  -0.214  -0.415  -1.604  -0.029  -0.057  -0.219
  0.272  -0.214   0.910   0.045   0.174   0.063   0.005   0.018
  0.528  -0.415   0.045   0.975   0.337   0.005   0.070   0.036
  2.043  -1.604   0.174   0.337   2.193   0.018   0.036   0.199
  0.048  -0.029   0.063   0.005   0.018   0.005   0.001   0.003
  0.093  -0.057   0.005   0.070   0.036   0.001   0.006   0.006
  0.359  -0.219   0.018   0.036   0.199   0.003   0.006   0.026
 total augmentation occupancy for first ion, spin component:           2
  0.012  -0.018  -0.000  -0.001  -0.003  -0.000  -0.000  -0.001
 -0.018  -0.011   0.004   0.009   0.032   0.000   0.000   0.001
 -0.000   0.004   0.009  -0.001  -0.005  -0.000  -0.000  -0.000
 -0.001   0.009  -0.001   0.005  -0.009  -0.000  -0.000  -0.000
 -0.003   0.032  -0.005  -0.009  -0.027  -0.000  -0.000  -0.001
 -0.000   0.000  -0.000  -0.000  -0.000  -0.000   0.000   0.000
 -0.000   0.000  -0.000  -0.000  -0.000   0.000  -0.000  -0.000
 -0.001   0.001  -0.000  -0.000  -0.001   0.000  -0.000  -0.000


----------------------------------------- Iteration    1(   7)  ---------------------------------------


    POTLOK:  cpu time    0.12: real time    0.12
    SETDIJ:  cpu time    0.01: real time    0.01
    EDDIAG:  cpu time    0.02: real time    0.02
  RMM-DIIS:  cpu time    0.07: real time    0.07
    ORTHCH:  cpu time    0.00: real time    0.00
       DOS:  cpu time    0.00: real time    0.00
    CHARGE:  cpu time    0.01: real time    0.01
    MIXING:  cpu time    0.00: real time    0.00
    --------------------------------------------
      LOOP:  cpu time    0.25: real time    0.25

 eigenvalue-minimisations  :    96
 total energy-change (2. order) :-0.3238293E+01  (-0.1920242E+00)
 number of electron       9.9999976 magnetization       0.4032157
 augmentation part        0.6584006 magnetization       0.3819468

 Broyden mixing:
  rms(total) = 0.21983E+00    rms(broyden)= 0.21982E+00
  rms(prec ) = 0.23441E+00
  weight for this iteration     100.00

 eigenvalues of (default mixing * dielectric matrix)
  average eigenvalue GAMMA=   1.1166
  0.9101  1.3231

 Free energy of the ion-electron system (eV)
  ---------------------------------------------------
  alpha Z        PSCENC =         0.24666799
  Ewald energy   TEWEN  =       133.95373630
  -Hartree energ DENC   =      -613.02826414
  -exchange      EXHF   =         0.00000000
  -V(xc)+E(xc)   XCENC  =        42.10524754
  PAW double counting   =       698.73412433     -701.25369041
  entropy T*S    EENTRO =         0.00346196
  eigenvalues    EBANDS =      -152.87729019
  atomic energy  EATOM  =       579.39041991
  ---------------------------------------------------
  free energy    TOTEN  =       -12.72558670 eV

  energy without entropy =      -12.72904867  energy(sigma->0) =      -12.72674069


--------------------------------------------------------------------------------------------------------




 average (electrostatic) potential at core
  the test charge radii are     0.6991  0.7215
  (the norm of the test charge is              1.0000)
       1 -61.9760       2 -83.5848
 
 
 
 E-fermi :  -9.0601     XC(G=0):  -0.0263     alpha+bet : -0.0989


 spin component 1

 k-point     1 :       0.2500    0.2500    0.0000
  band No.  band energies     occupation 
      1     -29.4449      1.00000
      2     -14.2009      1.00000
      3     -11.8029      1.00000
      4     -11.8025      1.00000
      5      -9.2839      1.00345
      6      -2.2824      0.00000
      7      -2.2806      0.00000
      8      -0.2999      0.00000
      9       0.3184      0.00000
     10       0.3512      0.00000
     11       0.6432      0.00000
     12       0.8711      0.00000

 k-point     2 :      -0.2500    0.2500    0.0000
  band No.  band energies     occupation 
      1     -29.4449      1.00000
      2     -14.2009      1.00000
      3     -11.8028      1.00000
      4     -11.8024      1.00000
      5      -9.2839      1.00345
      6      -2.2826      0.00000
      7      -2.2805      0.00000
      8      -0.2975      0.00000
      9       0.3055      0.00000
     10       0.3596      0.00000
     11       0.6431      0.00000
     12       0.8573      0.00000

 spin component 2

 k-point     1 :       0.2500    0.2500    0.0000
  band No.  band energies     occupation 
      1     -29.4543      1.00000
      2     -14.1847      1.00000
      3     -11.7801      1.00000
      4     -11.7800      1.00000
      5      -9.1428      0.99656
      6      -1.9044      0.00000
      7      -1.9050      0.00000
      8       0.2200      0.00000
      9       0.7290      0.00000
     10       0.3770      0.00000
     11       1.2914      0.00000
     12       0.7902      0.00000

 k-point     2 :      -0.2500    0.2500    0.0000
  band No.  band energies     occupation 
      1     -29.4542      1.00000
      2     -14.1847      1.00000
      3     -11.7801      1.00000
      4     -11.7800      1.00000
      5      -9.1428      0.99655
      6      -1.9043      0.00000
      7      -1.9053      0.00000
      8       0.2095      0.00000
      9       0.7093      0.00000
     10       0.3492      0.00000
     11       1.2979      0.00000
     12       0.8067      0.00000


--------------------------------------------------------------------------------------------------------


 soft charge-density along one line, spin component           1
         0         1         2         3         4         5         6         7         8         9
 total charge-density along one line
 
 soft charge-density along one line, spin component           2
         0         1         2         3         4         5         6         7         8         9
 total charge-density along one line
 
 pseudopotential strength for first ion, spin component:           1
 10.442  13.892   0.004   0.007   0.028  -0.012  -0.024  -0.093
 13.892  18.480   0.005   0.010   0.037  -0.016  -0.032  -0.123
  0.004   0.005  -4.554  -0.001  -0.002   8.914   0.001   0.003
  0.007   0.010  -0.001  -4.555  -0.004   0.001   8.914   0.006
  0.028   0.037  -0.002  -0.004  -4.571   0.003   0.006   8.937
 -0.012  -0.016   8.914   0.001   0.003 -19.594  -0.001  -0.003
 -0.024  -0.032   0.001   8.914   0.006  -0.001 -19.594  -0.007
 -0.093  -0.123   0.003   0.006   8.937  -0.003  -0.007 -19.620
 pseudopotential strength for first ion, spin component:           2
 10.429  13.874   0.003   0.006   0.022  -0.010  -0.019  -0.073
 13.874  18.456   0.004   0.007   0.029  -0.013  -0.025  -0.097
  0.003   0.004  -4.560  -0.001  -0.003   8.938   0.001   0.005
  0.006   0.007  -0.001  -4.562  -0.006   0.001   8.940   0.009
  0.022   0.029  -0.003  -0.006  -4.584   0.005   0.009   8.972
 -0.010  -0.013   8.938   0.001   0.005 -19.665  -0.001  -0.006
 -0.019  -0.025   0.001   8.940   0.009  -0.001 -19.668  -0.011
 -0.073  -0.097   0.005   0.009   8.972  -0.006  -0.011 -19.709
 total augmentation occupancy for first ion, spin component:           1
  7.451  -3.389   0.266   0.516   1.998   0.048   0.093   0.361
 -3.389   1.952  -0.206  -0.400  -1.549  -0.029  -0.057  -0.221
  0.266  -0.206   0.866   0.045   0.175   0.064   0.005   0.018
  0.516  -0.400   0.045   0.930   0.340   0.005   0.070   0.036
  1.998  -1.549   0.175   0.340   2.161   0.019   0.036   0.200
  0.048  -0.029   0.064   0.005   0.019   0.005   0.001   0.003
  0.093  -0.057   0.005   0.070   0.036   0.001   0.006   0.006
  0.361  -0.221   0.018   0.036   0.200   0.003   0.006   0.026
 total augmentation occupancy for first ion, spin component:           2
  0.044  -0.003  -0.007  -0.014  -0.054  -0.001  -0.002  -0.005
 -0.003  -0.034   0.008   0.016   0.058   0.000   0.001   0.003
 -0.007   0.008   0.013  -0.001  -0.004   0.001  -0.000  -0.000
 -0.014   0.016  -0.001   0.011  -0.007  -0.000   0.001  -0.000
 -0.054   0.058  -0.004  -0.007  -0.014  -0.000  -0.000   0.001
 -0.001   0.000   0.001  -0.000  -0.000   0.000  -0.000  -0.000
 -0.002   0.001  -0.000   0.001  -0.000  -0.000   0.000  -0.000
 -0.005   0.003  -0.000  -0.000   0.001  -0.000  -0.000   0.000


----------------------------------------- Iteration    1(   8)  ---------------------------------------


    POTLOK:  cpu time    0.10: real time    0.10
    SETDIJ:  cpu time    0.01: real time    0.01
    EDDIAG:  cpu time    0.02: real time    0.02
  RMM-DIIS:  cpu time    0.07: real time    0.07
    ORTHCH:  cpu time    0.00: real time    0.00
       DOS:  cpu time    0.00: real time    0.00
    CHARGE:  cpu time    0.01: real time    0.01
    MIXING:  cpu time    0.00: real time    0.00
    --------------------------------------------
      LOOP:  cpu time    0.21: real time    0.22

 eigenvalue-minimisations  :    96
 total energy-change (2. order) :-0.1525047E+01  (-0.8735994E-01)
 number of electron       9.9999976 magnetization       0.2521287
 augmentation part        0.6561082 magnetization       0.1971715

 Broyden mixing:
  rms(total) = 0.92115E-01    rms(broyden)= 0.92058E-01
  rms(prec ) = 0.98233E-01
  weight for this iteration     100.00

 eigenvalues of (default mixing * dielectric matrix)
  average eigenvalue GAMMA=   1.2253
  1.9137  1.0350  0.7272

 Free energy of the ion-electron system (eV)
  ---------------------------------------------------
  alpha Z        PSCENC =         0.24666799
  Ewald energy   TEWEN  =       133.95373630
  -Hartree energ DENC   =      -616.16585644
  -exchange      EXHF   =         0.00000000
  -V(xc)+E(xc)   XCENC  =        40.98410553
  PAW double counting   =       810.34764420     -812.84428252
  entropy T*S    EENTRO =         0.00586173
  eigenvalues    EBANDS =      -150.16893073
  atomic energy  EATOM  =       579.39041991
  ---------------------------------------------------
  free energy    TOTEN  =       -14.25063405 eV

  energy without entropy =      -14.25649578  energy(sigma->0) =      -14.25258796


--------------------------------------------------------------------------------------------------------




 average (electrostatic) potential at core
  the test charge radii are     0.6991  0.7215
  (the norm of the test charge is              1.0000)
       1 -61.2820       2 -83.3827
 
 
 
 E-fermi :  -8.7337     XC(G=0):  -0.1725     alpha+bet : -0.0989


 spin component 1

 k-point     1 :       0.2500    0.2500    0.0000
  band No.  band energies     occupation 
      1     -29.0755      1.00000
      2     -13.9328      1.00000
      3     -11.6051      1.00000
      4     -11.6048      1.00000
      5      -8.8856      1.02681
      6      -1.9992      0.00000
      7      -1.9985      0.00000
      8      -0.3392      0.00000
      9       0.1958      0.00000
     10       0.2616      0.00000
     11       0.5826      0.00000
     12       0.7709      0.00000

 k-point     2 :      -0.2500    0.2500    0.0000
  band No.  band energies     occupation 
      1     -29.0755      1.00000
      2     -13.9328      1.00000
      3     -11.6050      1.00000
      4     -11.6047      1.00000
      5      -8.8856      1.02681
      6      -1.9991      0.00000
      7      -1.9987      0.00000
      8      -0.3393      0.00000
      9       0.1832      0.00000
     10       0.2659      0.00000
     11       0.5821      0.00000
     12       0.7626      0.00000

 spin component 2

 k-point     1 :       0.2500    0.2500    0.0000
  band No.  band energies     occupation 
      1     -29.1360      1.00000
      2     -13.9473      1.00000
      3     -11.5863      1.00000
      4     -11.5859      1.00000
      5      -8.8078      0.97319
      6      -1.8293      0.00000
      7      -1.8271      0.00000
      8       0.2354      0.00000
      9       0.7366      0.00000
     10       0.6111      0.00000
     11       1.2339      0.00000
     12       1.4147      0.00000

 k-point     2 :      -0.2500    0.2500    0.0000
  band No.  band energies     occupation 
      1     -29.1360      1.00000
      2     -13.9474      1.00000
      3     -11.5862      1.00000
      4     -11.5858      1.00000
      5      -8.8078      0.97319
      6      -1.8295      0.00000
      7      -1.8271      0.00000
      8       0.2410      0.00000
      9       0.7157      0.00000
     10       0.6133      0.00000
     11       1.2659      0.00000
     12       1.4913      0.00000


--------------------------------------------------------------------------------------------------------


 soft charge-density along one line, spin component           1
         0         1         2         3         4         5         6         7         8         9
 total charge-density along one line
 
 soft charge-density along one line, spin component           2
         0         1         2         3         4         5         6         7         8         9
 total charge-density along one line
 
 pseudopotential strength for first ion, spin component:           1
 10.385  13.815   0.003   0.006   0.024  -0.010  -0.020  -0.079
 13.815  18.376   0.004   0.008   0.031  -0.014  -0.027  -0.104
  0.003   0.004  -4.529  -0.000  -0.001   8.876   0.000   0.001
  0.006   0.008  -0.000  -4.530  -0.003   0.000   8.877   0.002
  0.024   0.031  -0.001  -0.003  -4.539   0.001   0.002   8.885
 -0.010  -0.014   8.876   0.000   0.001 -19.542   0.000   0.001
 -0.020  -0.027   0.000   8.877   0.002   0.000 -19.543   0.002
 -0.079  -0.104   0.001   0.002   8.885   0.001   0.002 -19.537
 pseudopotential strength for first ion, spin component:           2
 10.403  13.840   0.004   0.007   0.027  -0.012  -0.023  -0.087
 13.840  18.410   0.005   0.009   0.035  -0.015  -0.030  -0.116
  0.004   0.005  -4.515  -0.000  -0.001   8.829   0.000   0.001
  0.007   0.009  -0.000  -4.515  -0.003   0.000   8.830   0.003
  0.027   0.035  -0.001  -0.003  -4.526   0.001   0.003   8.840
 -0.012  -0.015   8.829   0.000   0.001 -19.412  -0.000   0.000
 -0.023  -0.030   0.000   8.830   0.003  -0.000 -19.411  -0.000
 -0.087  -0.116   0.001   0.003   8.840   0.000  -0.000 -19.411
 total augmentation occupancy for first ion, spin component:           1
  7.697  -3.520   0.265   0.512   1.986   0.048   0.094   0.363
 -3.520   1.990  -0.203  -0.393  -1.525  -0.030  -0.058  -0.224
  0.265  -0.203   0.842   0.045   0.175   0.065   0.005   0.019
  0.512  -0.393   0.045   0.906   0.339   0.005   0.072   0.036
  1.986  -1.525   0.175   0.339   2.135   0.019   0.036   0.203
  0.048  -0.030   0.065   0.005   0.019   0.005   0.001   0.003
  0.094  -0.058   0.005   0.072   0.036   0.001   0.006   0.006
  0.363  -0.224   0.019   0.036   0.203   0.003   0.006   0.027
 total augmentation occupancy for first ion, spin component:           2
 -0.008   0.009  -0.002  -0.005  -0.020  -0.000  -0.001  -0.002
  0.009  -0.006   0.000   0.001   0.004   0.000   0.000   0.000
 -0.002   0.000   0.001   0.001   0.003   0.001   0.000   0.000
 -0.005   0.001   0.001   0.003   0.006   0.000   0.001   0.000
 -0.020   0.004   0.003   0.006   0.023   0.000   0.000   0.002
 -0.000   0.000   0.001   0.000   0.000   0.000   0.000   0.000
 -0.001   0.000   0.000   0.001   0.000   0.000   0.000   0.000
 -0.002   0.000   0.000   0.000   0.002   0.000   0.000   0.000


----------------------------------------- Iteration    1(   9)  ---------------------------------------


    POTLOK:  cpu time    0.09: real time    0.09
    SETDIJ:  cpu time    0.00: real time    0.00
    EDDIAG:  cpu time    0.02: real time    0.02
  RMM-DIIS:  cpu time    0.07: real time    0.07
    ORTHCH:  cpu time    0.00: real time    0.00
       DOS:  cpu time    0.00: real time    0.00
    CHARGE:  cpu time    0.01: real time    0.01
    MIXING:  cpu time    0.00: real time    0.00
    --------------------------------------------
      LOOP:  cpu time    0.21: real time    0.22

 eigenvalue-minimisations  :    96
 total energy-change (2. order) :-0.2299370E+00  (-0.7923165E-02)
 number of electron       9.9999977 magnetization       0.1356486
 augmentation part        0.6522802 magnetization       0.1166131

 Broyden mixing:
  rms(total) = 0.48339E-01    rms(broyden)= 0.48320E-01
  rms(prec ) = 0.52520E-01
  weight for this iteration     100.00

 eigenvalues of (default mixing * dielectric matrix)
  average eigenvalue GAMMA=   1.1821
  2.1545  0.9700  0.9700  0.6338

 Free energy of the ion-electron system (eV)
  ---------------------------------------------------
  alpha Z        PSCENC =         0.24666799
  Ewald energy   TEWEN  =       133.95373630
  -Hartree energ DENC   =      -616.20154615
  -exchange      EXHF   =         0.00000000
  -V(xc)+E(xc)   XCENC  =        40.77968785
  PAW double counting   =       841.72370403     -844.20498829
  entropy T*S    EENTRO =         0.00416150
  eigenvalues    EBANDS =      -150.17241417
  atomic energy  EATOM  =       579.39041991
  ---------------------------------------------------
  free energy    TOTEN  =       -14.48057104 eV

  energy without entropy =      -14.48473254  energy(sigma->0) =      -14.48195821


--------------------------------------------------------------------------------------------------------




 average (electrostatic) potential at core
  the test charge radii are     0.6991  0.7215
  (the norm of the test charge is              1.0000)
       1 -61.4276       2 -83.3558
 
 
 
 E-fermi :  -8.7528     XC(G=0):  -0.0519     alpha+bet : -0.0989


 spin component 1

 k-point     1 :       0.2500    0.2500    0.0000
  band No.  band energies     occupation 
      1     -29.1057      1.00000
[...]
    SETDIJ:  cpu time    0.00: real time    0.00
    EDDIAG:  cpu time    0.02: real time    0.02
  RMM-DIIS:  cpu time    0.05: real time    0.05
    ORTHCH:  cpu time    0.00: real time    0.00
       DOS:  cpu time    0.00: real time    0.00
    --------------------------------------------
      LOOP:  cpu time    0.17: real time    0.18

 eigenvalue-minimisations  :    60
 total energy-change (2. order) :-0.6532505E-06  (-0.3248084E-08)
 number of electron       9.9999982 magnetization       0.0418179
 augmentation part        0.6539560 magnetization       0.0016059

 Free energy of the ion-electron system (eV)
  ---------------------------------------------------
  alpha Z        PSCENC =         0.24666799
  Ewald energy   TEWEN  =       134.59628855
  -Hartree energ DENC   =      -615.76756002
  -exchange      EXHF   =         0.00000000
  -V(xc)+E(xc)   XCENC  =        40.42664655
  PAW double counting   =       866.16330389     -868.61972094
  entropy T*S    EENTRO =         0.00537061
  eigenvalues    EBANDS =      -151.23492612
  atomic energy  EATOM  =       579.39041991
  ---------------------------------------------------
  free energy    TOTEN  =       -14.79350958 eV

  energy without entropy =      -14.79888018  energy(sigma->0) =      -14.79529978


--------------------------------------------------------------------------------------------------------




 average (electrostatic) potential at core
  the test charge radii are     0.6991  0.7215
  (the norm of the test charge is              1.0000)
       1 -61.6478       2 -83.5255
 
 
 
 E-fermi :  -8.8597     XC(G=0):  -0.3910     alpha+bet : -0.0989


 spin component 1

 k-point     1 :       0.2500    0.2500    0.0000
  band No.  band energies     occupation 
      1     -29.2425      1.00000
      2     -13.9969      1.00000
      3     -11.7095      1.00000
      4     -11.7095      1.00000
      5      -9.0244      1.02091
      6      -2.0823      0.00000
      7      -2.0820      0.00000
      8      -0.0730      0.00000
      9       0.4459      0.00000
     10       0.5077      0.00000
     11       0.8939      0.00000
     12       0.9678      0.00000

 k-point     2 :      -0.2500    0.2500    0.0000
  band No.  band energies     occupation 
      1     -29.2425      1.00000
      2     -13.9969      1.00000
      3     -11.7095      1.00000
      4     -11.7094      1.00000
      5      -9.0244      1.02091
      6      -2.0824      0.00000
      7      -2.0821      0.00000
      8      -0.0717      0.00000
      9       0.4414      0.00000
     10       0.5048      0.00000
     11       0.8943      0.00000
     12       0.9762      0.00000

 spin component 2

 k-point     1 :       0.2500    0.2500    0.0000
  band No.  band energies     occupation 
      1     -29.2319      1.00000
      2     -13.9765      1.00000
      3     -11.7031      1.00000
      4     -11.7030      1.00000
      5      -8.9357      0.97908
      6      -2.0478      0.00000
      7      -2.0475      0.00000
      8      -0.0703      0.00000
      9       0.4476      0.00000
     10       0.5092      0.00000
     11       0.8958      0.00000
     12       0.9690      0.00000

 k-point     2 :      -0.2500    0.2500    0.0000
  band No.  band energies     occupation 
      1     -29.2319      1.00000
      2     -13.9765      1.00000
      3     -11.7031      1.00000
      4     -11.7030      1.00000
      5      -8.9357      0.97910
      6      -2.0479      0.00000
      7      -2.0476      0.00000
      8      -0.0690      0.00000
      9       0.4428      0.00000
     10       0.5066      0.00000
     11       0.8962      0.00000
     12       0.9776      0.00000


--------------------------------------------------------------------------------------------------------


 soft charge-density along one line, spin component           1
         0         1         2         3         4         5         6         7         8         9
 total charge-density along one line
 
 soft charge-density along one line, spin component           2
         0         1         2         3         4         5         6         7         8         9
 total charge-density along one line
 
 pseudopotential strength for first ion, spin component:           1
 10.414  13.853   0.003   0.006   0.024  -0.010  -0.020  -0.079
 13.853  18.429   0.004   0.008   0.031  -0.014  -0.026  -0.104
  0.003   0.004  -4.544  -0.000  -0.001   8.896   0.000   0.001
  0.006   0.008  -0.000  -4.544  -0.002   0.000   8.896   0.001
  0.024   0.031  -0.001  -0.002  -4.553   0.001   0.001   8.901
 -0.010  -0.014   8.896   0.000   0.001 -19.565   0.000   0.002
 -0.020  -0.026   0.000   8.896   0.001   0.000 -19.564   0.003
 -0.079  -0.104   0.001   0.001   8.901   0.002   0.003 -19.551
 pseudopotential strength for first ion, spin component:           2
 10.409  13.847   0.003   0.006   0.025  -0.011  -0.021  -0.083
 13.847  18.420   0.004   0.008   0.033  -0.015  -0.027  -0.110
  0.003   0.004  -4.544  -0.000  -0.001   8.897   0.000   0.000
  0.006   0.008  -0.000  -4.544  -0.002   0.000   8.897   0.001
  0.025   0.033  -0.001  -0.002  -4.550   0.000   0.001   8.899
 -0.011  -0.015   8.897   0.000   0.000 -19.571   0.001   0.003
 -0.021  -0.027   0.000   8.897   0.001   0.001 -19.570   0.005
 -0.083  -0.110   0.000   0.001   8.899   0.003   0.005 -19.551
 total augmentation occupancy for first ion, spin component:           1
  7.579  -3.469   0.270   0.504   2.026   0.049   0.091   0.365
 -3.469   1.983  -0.206  -0.386  -1.550  -0.030  -0.056  -0.225
  0.270  -0.206   0.856   0.043   0.174   0.066   0.005   0.019
  0.504  -0.386   0.043   0.913   0.326   0.005   0.072   0.035
  2.026  -1.550   0.174   0.326   2.143   0.019   0.035   0.204
  0.049  -0.030   0.066   0.005   0.019   0.005   0.001   0.003
  0.091  -0.056   0.005   0.072   0.035   0.001   0.006   0.005
  0.365  -0.225   0.019   0.035   0.204   0.003   0.005   0.027
 total augmentation occupancy for first ion, spin component:           2
  0.021  -0.006  -0.001  -0.002  -0.010  -0.000  -0.000  -0.000
 -0.006   0.006  -0.001  -0.002  -0.008  -0.000  -0.000  -0.001
 -0.001  -0.001   0.003   0.001   0.003   0.000   0.000   0.000
 -0.002  -0.002   0.001   0.004   0.006   0.000   0.000   0.000
 -0.010  -0.008   0.003   0.006   0.027   0.000   0.000   0.001
 -0.000  -0.000   0.000   0.000   0.000   0.000   0.000   0.000
 -0.000  -0.000   0.000   0.000   0.000   0.000   0.000   0.000
 -0.000  -0.001   0.000   0.000   0.001   0.000   0.000   0.000


------------------------ aborting loop because EDIFF is reached ----------------------------------------


 


 total charge     
 
# of ion     s       p       d       tot
----------------------------------------
  1        1.041   1.441   0.000   2.482
  2        1.655   3.553   0.000   5.208
------------------------------------------------
tot        2.696   4.994   0.000   7.690
 


 magnetization (x)
 
# of ion     s       p       d       tot
----------------------------------------
  1        0.008   0.014   0.000   0.022
  2       -0.000   0.003   0.000   0.003
------------------------------------------------
tot        0.008   0.017   0.000   0.025
 
    CHARGE:  cpu time    0.01: real time    0.01
    FORLOC:  cpu time    0.00: real time    0.00
    FORNL :  cpu time    0.02: real time    0.02
    STRESS:  cpu time    0.06: real time    0.06
    FORCOR:  cpu time    0.10: real time    0.10
    FORHAR:  cpu time    0.01: real time    0.01
    MIXING:  cpu time    0.00: real time    0.00
    OFIELD:  cpu time    0.00: real time    0.00

 ---------------------------------------------------------------------------------------------

         DFTD3 V3.0 Rev 1        
 Edisp (eV)   -0.00009

 E6    (eV) :    -0.0001
 E8    (eV) :    -0.0000
 % E8        : 11.92
    FORVDW:  cpu time    0.01: real time    0.01

  FORCE on cell =-STRESS in cart. coord.  units (eV):
  Direction    XX          YY          ZZ          XY          YZ          ZX
  --------------------------------------------------------------------------------------
  Alpha Z     0.24667     0.24667     0.24667
  Ewald     226.67387   -51.55739   -40.52023    37.08654     9.22289    69.38067
  Hartree   270.73061   170.99554   174.04099    12.90451     3.21172    24.14488
  E(xc)     -42.97950   -43.98919   -43.94384     0.13661     0.03396     0.25555
  Local    -608.22958  -254.59508  -267.58506   -46.69940   -11.61663   -87.36842
  n-local   -29.01938   -18.68715   -19.14977    -1.39789    -0.34800    -2.61683
  augment     5.76745     6.21932     6.19932    -0.06044    -0.01449    -0.11322
  Kinetic   176.37726   190.59618   189.95798    -1.92419    -0.47839    -3.59948
  Fock        0.00000     0.00000     0.00000     0.00000     0.00000     0.00000
  vdW        -0.00011    -0.00016    -0.00016     0.00001     0.00000     0.00002
  -------------------------------------------------------------------------------------
  Total      -0.43270    -0.77127    -0.75410     0.04575     0.01107     0.08317
  in kB      -0.39136    -0.69758    -0.68205     0.04138     0.01001     0.07522
  external pressure =       -0.59 kB  Pullay stress =        0.00 kB


 VOLUME and BASIS-vectors are now :
 -----------------------------------------------------------------------------
  energy-cutoff  :      400.00
  volume of cell :     1771.44
      direct lattice vectors                 reciprocal lattice vectors
    12.000000000  0.000000000  0.000000000     0.083333333  0.000000000  0.000000000
     0.000000000 12.100000381  0.000000000     0.000000000  0.082644625  0.000000000
     0.000000000  0.000000000 12.199999809     0.000000000  0.000000000  0.081967214

  length of vectors
    12.000000000 12.100000381 12.199999809     0.083333333  0.082644625  0.081967214


 FORCES acting on ions
    electron-ion (+dipol)            ewald-force                    non-local-force                 convergence-correction
 -----------------------------------------------------------------------------------------------
   0.227E+03 0.302E+02 0.565E+02   -.255E+03 -.338E+02 -.633E+02   0.271E+02 0.360E+01 0.673E+01   0.163E-04 0.918E-06 -.485E-04
   -.197E+03 -.262E+02 -.490E+02   0.255E+03 0.338E+02 0.633E+02   -.574E+02 -.763E+01 -.143E+02   -.672E-04 -.643E-05 -.917E-03
 -----------------------------------------------------------------------------------------------
   0.304E+02 0.404E+01 0.755E+01   0.000E+00 0.000E+00 0.000E+00   -.304E+02 -.403E+01 -.754E+01   -.509E-04 -.551E-05 -.965E-03
 
 
 POSITION                                       TOTAL-FORCE (eV/Angst)
 -----------------------------------------------------------------------------------
      5.63218      7.44445      6.16094        -0.278166     -0.038428     -0.071151
      6.73046      7.59041      6.43398         0.278166      0.038428      0.071151
 -----------------------------------------------------------------------------------
    total drift:                               -0.003395      0.004397      0.007796


--------------------------------------------------------------------------------------------------------



  FREE ENERGIE OF THE ION-ELECTRON SYSTEM (eV)
  ---------------------------------------------------
  free  energy   TOTEN  =       -14.79360311 eV

  energy  without entropy=      -14.79897372  energy(sigma->0) =      -14.79539331
 
 d Force =-0.2905538E-04[-0.142E-02, 0.136E-02]  d Energy =-0.1353046E-03 0.106E-03
 d Force =-0.1303622E+01[-0.127E+01,-0.134E+01]  d Ewald  =-0.1303892E+01 0.269E-03


--------------------------------------------------------------------------------------------------------


    POTLOK:  cpu time    0.10: real time    0.10


--------------------------------------------------------------------------------------------------------


 stress matrix after NEB project (eV)
     -0.43270      0.04575      0.08317
      0.04575     -0.77127      0.01107
      0.08317      0.01107     -0.75410
  FORCES: max atom, RMS     0.289681    0.289681
  FORCE total and by dimension    0.409671    0.278166
  Stress total and by dimension    1.170056    0.771274
 Finite differences progress:
  Degree of freedom:   6/  6
  Displacement:        2/  2
  Total:              12/ 12
 
 FORCES
 ------
 
 INITIAL FORCE
 -0.009615  -0.002623  -0.003633
  0.009615   0.002623   0.003633
DOF:   1 ATOM:   1 AXIS:   1 DISPLACEMENT:   1
 -1.095700  -0.148129  -0.286395
  1.095700   0.148129   0.286395
 
DOF:   1 ATOM:   1 AXIS:   1 DISPLACEMENT:   2
  1.005055   0.131001   0.255091
 -1.005055  -0.131001  -0.255091
 
DOF:   2 ATOM:   1 AXIS:   2 DISPLACEMENT:   1
 -0.146285  -0.019423  -0.038895
  0.146285   0.019423   0.038895
 
DOF:   2 ATOM:   1 AXIS:   2 DISPLACEMENT:   2
  0.132998   0.017042   0.032399
 -0.132998  -0.017042  -0.032399
 
DOF:   3 ATOM:   1 AXIS:   3 DISPLACEMENT:   1
 -0.278187  -0.037843  -0.071103
  0.278187   0.037843   0.071103
 
DOF:   3 ATOM:   1 AXIS:   3 DISPLACEMENT:   2
  0.262227   0.032388   0.068382
 -0.262227  -0.032388  -0.068382
 
DOF:   4 ATOM:   2 AXIS:   1 DISPLACEMENT:   1
  1.005029   0.130967   0.255056
 -1.005029  -0.130967  -0.255056
 
DOF:   4 ATOM:   2 AXIS:   1 DISPLACEMENT:   2
 -1.094820  -0.147919  -0.286185
  1.094820   0.147919   0.286185
 
DOF:   5 ATOM:   2 AXIS:   2 DISPLACEMENT:   1
  0.134170   0.016831   0.032628
 -0.134170  -0.016831  -0.032628
 
DOF:   5 ATOM:   2 AXIS:   2 DISPLACEMENT:   2
 -0.145158  -0.019474  -0.038883
  0.145158   0.019474   0.038883
 
DOF:   6 ATOM:   2 AXIS:   3 DISPLACEMENT:   1
  0.262847   0.033313   0.068245
 -0.262847  -0.033313  -0.068245
 
DOF:   6 ATOM:   2 AXIS:   3 DISPLACEMENT:   2
 -0.278166  -0.038428  -0.071151
  0.278166   0.038428   0.071151
 
  
 
 SECOND DERIVATIVES (NOT SYMMETRIZED)
 ------------------------------------
               1X          1Y          1Z          2X          2Y          2Z 
  1X  -105.037747  -13.956501  -27.074307  105.037747   13.956501   27.074307
  1Y   -13.964171   -1.823255   -3.564674   13.964171    1.823255    3.564674
  1Z   -27.020736   -3.511563   -6.974243   27.020736    3.511563    6.974243
  2X   104.992468   13.944307   27.062026 -104.992468  -13.944307  -27.062026
  2Y    13.966399    1.815255    3.575521  -13.966399   -1.815255   -3.575521
  2Z    27.050615    3.587041    6.969792  -27.050615   -3.587041   -6.969792
 
 
 Eigenvectors and eigenvalues of the dynamical matrix
 ----------------------------------------------------
 
 
   1 f  =   63.681115 THz   400.120245 2PiTHz 2124.173278 cm-1   263.364016 meV
             X         Y         Z           dx          dy          dz
      5.632176  7.444447  6.160937     0.725988    0.096384    0.186908  
      6.730464  7.590409  6.443981    -0.628874   -0.083520   -0.162048  
 
   2 f  =    1.074102 THz     6.748785 2PiTHz   35.828200 cm-1     4.442132 meV
             X         Y         Z           dx          dy          dz
      5.632176  7.444447  6.160937    -0.106279   -0.464289    0.802323  
      6.730464  7.590409  6.443981     0.063406    0.279737   -0.217129  
 
   3 f  =    0.112783 THz     0.708640 2PiTHz    3.762052 cm-1     0.466435 meV
             X         Y         Z           dx          dy          dz
      5.632176  7.444447  6.160937     0.104082   -0.526345   -0.197381  
      6.730464  7.590409  6.443981     0.184714   -0.659956   -0.451118  
 
   4 f/i=    0.005866 THz     0.036855 2PiTHz    0.195658 cm-1     0.024258 meV
             X         Y         Z           dx          dy          dz
      5.632176  7.444447  6.160937     0.640061    0.119393    0.068943  
      6.730464  7.590409  6.443981     0.738959    0.137692    0.079347  
 
   5 f/i=    0.275616 THz     1.731746 2PiTHz    9.193560 cm-1     1.139857 meV
             X         Y         Z           dx          dy          dz
      5.632176  7.444447  6.160937    -0.081568    0.306501   -0.201276  
      6.730464  7.590409  6.443981     0.056916    0.391646   -0.838013  
 
   6 f/i=    1.449093 THz     9.104919 2PiTHz   48.336535 cm-1     5.992969 meV
             X         Y         Z           dx          dy          dz
      5.632176  7.444447  6.160937     0.185695   -0.624427   -0.486949  
      6.730464  7.590409  6.443981    -0.130687    0.553971    0.120522  
 
 Eigenvectors after division by SQRT(mass)
 
 Eigenvectors and eigenvalues of the dynamical matrix
 ----------------------------------------------------
 
 
   1 f  =   63.681115 THz   400.120245 2PiTHz 2124.173278 cm-1   263.364016 meV
             X         Y         Z           dx          dy          dz
      5.632176  7.444447  6.160937     0.209479    0.027811    0.053931  
      6.730464  7.590409  6.443981    -0.157218   -0.020880   -0.040512  
 
   2 f  =    1.074102 THz     6.748785 2PiTHz   35.828200 cm-1     4.442132 meV
             X         Y         Z           dx          dy          dz
      5.632176  7.444447  6.160937    -0.030666   -0.133967    0.231505  
      6.730464  7.590409  6.443981     0.015852    0.069934   -0.054282  
 
   3 f  =    0.112783 THz     0.708640 2PiTHz    3.762052 cm-1     0.466435 meV
             X         Y         Z           dx          dy          dz
      5.632176  7.444447  6.160937     0.030032   -0.151873   -0.056953  
      6.730464  7.590409  6.443981     0.046179   -0.164989   -0.112780  
 
   4 f/i=    0.005866 THz     0.036855 2PiTHz    0.195658 cm-1     0.024258 meV
             X         Y         Z           dx          dy          dz
      5.632176  7.444447  6.160937     0.184685    0.034450    0.019893  
      6.730464  7.590409  6.443981     0.184740    0.034423    0.019837  
 
   5 f/i=    0.275616 THz     1.731746 2PiTHz    9.193560 cm-1     1.139857 meV
             X         Y         Z           dx          dy          dz
      5.632176  7.444447  6.160937    -0.023536    0.088439   -0.058077  
      6.730464  7.590409  6.443981     0.014229    0.097911   -0.209503  
 
   6 f/i=    1.449093 THz     9.104919 2PiTHz   48.336535 cm-1     5.992969 meV
             X         Y         Z           dx          dy          dz
      5.632176  7.444447  6.160937     0.053581   -0.180174   -0.140506  
      6.730464  7.590409  6.443981    -0.032672    0.138493    0.030130  
 
 Finite differences POTIM=  1.000000000000000E-002
 writing wavefunctions
     LOOP+:  cpu time    3.12: real time    3.25
    4ORBIT:  cpu time    0.00: real time    0.00
 


 total charge     
 
# of ion     s       p       d       tot
----------------------------------------
  1        1.041   1.441   0.000   2.482
  2        1.655   3.553   0.000   5.208
------------------------------------------------
tot        2.696   4.994   0.000   7.690
 


 magnetization (x)
 
# of ion     s       p       d       tot
----------------------------------------
  1        0.008   0.014   0.000   0.022
  2       -0.000   0.003   0.000   0.003
------------------------------------------------
tot        0.008   0.017   0.000   0.025
 

 total amount of memory used by VASP on root node    43449. kBytes
========================================================================

   base      :      30000. kBytes
   nonlr-proj:         77. kBytes
   fftplans  :       3591. kBytes
   grid      :       8736. kBytes
   one-center:          6. kBytes
   wavefun   :       1039. kBytes
 
  
  
 General timing and accounting informations for this job:
 ========================================================
  
                  Total CPU time used (sec):       62.372
                            User time (sec):       50.367
                          System time (sec):       12.005
                         Elapsed time (sec):       64.900
  
                   Maximum memory used (kb):       94136.
                   Average memory used (kb):           0.
  
                          Minor page faults:        47481
                          Major page faults:           11
                 Voluntary context switches:         3088
